# vtk DataFile Version 2.0

ASCII

DATASET UNSTRUCTURED_GRID

POINTS 157 double 

-5.00000000000000028e-02  0.00000000000000000e+00  0.00000000000000000e+00
-5.00000000000000028e-02  5.55555555555555525e-02  0.00000000000000000e+00
-5.00000000000000028e-02  9.59295359144507823e-03  0.00000000000000000e+00
-5.00000000000000028e-02  2.77777777777777762e-02  0.00000000000000000e+00
-5.00000000000000028e-02  4.59626019641104708e-02  0.00000000000000000e+00
4.99999999999999958e-02  0.00000000000000000e+00  0.00000000000000000e+00
4.99999999999999958e-02  5.55555555555555525e-02  0.00000000000000000e+00
4.99999999999999958e-02  9.59295359144507823e-03  0.00000000000000000e+00
4.99999999999999958e-02  2.77777777777777762e-02  0.00000000000000000e+00
4.99999999999999958e-02  4.59626019641104708e-02  0.00000000000000000e+00
-5.00000000000000028e-02  1.11111111111111105e-01  0.00000000000000000e+00
-5.00000000000000028e-02  6.51485091470006272e-02  0.00000000000000000e+00
-5.00000000000000028e-02  8.33333333333333287e-02  0.00000000000000000e+00
-5.00000000000000028e-02  1.01518157519666030e-01  0.00000000000000000e+00
4.99999999999999958e-02  1.11111111111111105e-01  0.00000000000000000e+00
4.99999999999999958e-02  6.51485091470006272e-02  0.00000000000000000e+00
4.99999999999999958e-02  8.33333333333333287e-02  0.00000000000000000e+00
4.99999999999999958e-02  1.01518157519666030e-01  0.00000000000000000e+00
-5.00000000000000028e-02  1.66666666666666657e-01  0.00000000000000000e+00
-5.00000000000000028e-02  1.20704064702556180e-01  0.00000000000000000e+00
-5.00000000000000028e-02  1.38888888888888895e-01  0.00000000000000000e+00
-5.00000000000000028e-02  1.57073713075221583e-01  0.00000000000000000e+00
4.99999999999999958e-02  1.66666666666666657e-01  0.00000000000000000e+00
4.99999999999999958e-02  1.20704064702556180e-01  0.00000000000000000e+00
4.99999999999999958e-02  1.38888888888888895e-01  0.00000000000000000e+00
4.99999999999999958e-02  1.57073713075221583e-01  0.00000000000000000e+00
-5.00000000000000028e-02  2.22222222222222210e-01  0.00000000000000000e+00
-5.00000000000000028e-02  1.76259620258111732e-01  0.00000000000000000e+00
-5.00000000000000028e-02  1.94444444444444420e-01  0.00000000000000000e+00
-5.00000000000000028e-02  2.12629268630777135e-01  0.00000000000000000e+00
4.99999999999999958e-02  2.22222222222222210e-01  0.00000000000000000e+00
4.99999999999999958e-02  1.76259620258111732e-01  0.00000000000000000e+00
4.99999999999999958e-02  1.94444444444444420e-01  0.00000000000000000e+00
4.99999999999999958e-02  2.12629268630777135e-01  0.00000000000000000e+00
-5.00000000000000028e-02  2.77777777777777790e-01  0.00000000000000000e+00
-5.00000000000000028e-02  2.31815175813667285e-01  0.00000000000000000e+00
-5.00000000000000028e-02  2.50000000000000000e-01  0.00000000000000000e+00
-5.00000000000000028e-02  2.68184824186332715e-01  0.00000000000000000e+00
4.99999999999999958e-02  2.77777777777777790e-01  0.00000000000000000e+00
4.99999999999999958e-02  2.31815175813667285e-01  0.00000000000000000e+00
4.99999999999999958e-02  2.50000000000000000e-01  0.00000000000000000e+00
4.99999999999999958e-02  2.68184824186332715e-01  0.00000000000000000e+00
-5.00000000000000028e-02  3.33333333333333315e-01  0.00000000000000000e+00
-5.00000000000000028e-02  2.87370731369222865e-01  0.00000000000000000e+00
-5.00000000000000028e-02  3.05555555555555580e-01  0.00000000000000000e+00
-5.00000000000000028e-02  3.23740379741888240e-01  0.00000000000000000e+00
4.99999999999999958e-02  3.33333333333333315e-01  0.00000000000000000e+00
4.99999999999999958e-02  2.87370731369222865e-01  0.00000000000000000e+00
4.99999999999999958e-02  3.05555555555555580e-01  0.00000000000000000e+00
4.99999999999999958e-02  3.23740379741888240e-01  0.00000000000000000e+00
-5.00000000000000028e-02  3.88888888888888840e-01  0.00000000000000000e+00
-5.00000000000000028e-02  3.42926286924778334e-01  0.00000000000000000e+00
-5.00000000000000028e-02  3.61111111111111049e-01  0.00000000000000000e+00
-5.00000000000000028e-02  3.79295935297443765e-01  0.00000000000000000e+00
4.99999999999999958e-02  3.88888888888888840e-01  0.00000000000000000e+00
4.99999999999999958e-02  3.42926286924778334e-01  0.00000000000000000e+00
4.99999999999999958e-02  3.61111111111111049e-01  0.00000000000000000e+00
4.99999999999999958e-02  3.79295935297443765e-01  0.00000000000000000e+00
-5.00000000000000028e-02  4.44444444444444420e-01  0.00000000000000000e+00
-5.00000000000000028e-02  3.98481842480333914e-01  0.00000000000000000e+00
-5.00000000000000028e-02  4.16666666666666630e-01  0.00000000000000000e+00
-5.00000000000000028e-02  4.34851490852999345e-01  0.00000000000000000e+00
4.99999999999999958e-02  4.44444444444444420e-01  0.00000000000000000e+00
4.99999999999999958e-02  3.98481842480333914e-01  0.00000000000000000e+00
4.99999999999999958e-02  4.16666666666666630e-01  0.00000000000000000e+00
4.99999999999999958e-02  4.34851490852999345e-01  0.00000000000000000e+00
-5.00000000000000028e-02  5.00000000000000000e-01  0.00000000000000000e+00
-5.00000000000000028e-02  4.54037398035889495e-01  0.00000000000000000e+00
-5.00000000000000028e-02  4.72222222222222210e-01  0.00000000000000000e+00
-5.00000000000000028e-02  4.90407046408554925e-01  0.00000000000000000e+00
4.99999999999999958e-02  5.00000000000000000e-01  0.00000000000000000e+00
4.99999999999999958e-02  4.54037398035889495e-01  0.00000000000000000e+00
4.99999999999999958e-02  4.72222222222222210e-01  0.00000000000000000e+00
4.99999999999999958e-02  4.90407046408554925e-01  0.00000000000000000e+00
-5.00000000000000028e-02  5.55555555555555580e-01  0.00000000000000000e+00
-5.00000000000000028e-02  5.09592953591445075e-01  0.00000000000000000e+00
-5.00000000000000028e-02  5.27777777777777790e-01  0.00000000000000000e+00
-5.00000000000000028e-02  5.45962601964110505e-01  0.00000000000000000e+00
4.99999999999999958e-02  5.55555555555555580e-01  0.00000000000000000e+00
4.99999999999999958e-02  5.09592953591445075e-01  0.00000000000000000e+00
4.99999999999999958e-02  5.27777777777777790e-01  0.00000000000000000e+00
4.99999999999999958e-02  5.45962601964110505e-01  0.00000000000000000e+00
-5.00000000000000028e-02  6.11111111111111049e-01  0.00000000000000000e+00
-5.00000000000000028e-02  5.65148509147000655e-01  0.00000000000000000e+00
-5.00000000000000028e-02  5.83333333333333259e-01  0.00000000000000000e+00
-5.00000000000000028e-02  6.01518157519665975e-01  0.00000000000000000e+00
4.99999999999999958e-02  6.11111111111111049e-01  0.00000000000000000e+00
4.99999999999999958e-02  5.65148509147000655e-01  0.00000000000000000e+00
4.99999999999999958e-02  5.83333333333333259e-01  0.00000000000000000e+00
4.99999999999999958e-02  6.01518157519665975e-01  0.00000000000000000e+00
-5.00000000000000028e-02  6.66666666666666630e-01  0.00000000000000000e+00
-5.00000000000000028e-02  6.20704064702556013e-01  0.00000000000000000e+00
-5.00000000000000028e-02  6.38888888888888840e-01  0.00000000000000000e+00
-5.00000000000000028e-02  6.57073713075221555e-01  0.00000000000000000e+00
4.99999999999999958e-02  6.66666666666666630e-01  0.00000000000000000e+00
4.99999999999999958e-02  6.20704064702556013e-01  0.00000000000000000e+00
4.99999999999999958e-02  6.38888888888888840e-01  0.00000000000000000e+00
4.99999999999999958e-02  6.57073713075221555e-01  0.00000000000000000e+00
-5.00000000000000028e-02  7.22222222222222210e-01  0.00000000000000000e+00
-5.00000000000000028e-02  6.76259620258111704e-01  0.00000000000000000e+00
-5.00000000000000028e-02  6.94444444444444420e-01  0.00000000000000000e+00
-5.00000000000000028e-02  7.12629268630777135e-01  0.00000000000000000e+00
4.99999999999999958e-02  7.22222222222222210e-01  0.00000000000000000e+00
4.99999999999999958e-02  6.76259620258111704e-01  0.00000000000000000e+00
4.99999999999999958e-02  6.94444444444444420e-01  0.00000000000000000e+00
4.99999999999999958e-02  7.12629268630777135e-01  0.00000000000000000e+00
-5.00000000000000028e-02  7.77777777777777679e-01  0.00000000000000000e+00
-5.00000000000000028e-02  7.31815175813667174e-01  0.00000000000000000e+00
-5.00000000000000028e-02  7.50000000000000000e-01  0.00000000000000000e+00
-5.00000000000000028e-02  7.68184824186332604e-01  0.00000000000000000e+00
4.99999999999999958e-02  7.77777777777777679e-01  0.00000000000000000e+00
4.99999999999999958e-02  7.31815175813667174e-01  0.00000000000000000e+00
4.99999999999999958e-02  7.50000000000000000e-01  0.00000000000000000e+00
4.99999999999999958e-02  7.68184824186332604e-01  0.00000000000000000e+00
-5.00000000000000028e-02  8.33333333333333259e-01  0.00000000000000000e+00
-5.00000000000000028e-02  7.87370731369222754e-01  0.00000000000000000e+00
-5.00000000000000028e-02  8.05555555555555469e-01  0.00000000000000000e+00
-5.00000000000000028e-02  8.23740379741888185e-01  0.00000000000000000e+00
4.99999999999999958e-02  8.33333333333333259e-01  0.00000000000000000e+00
4.99999999999999958e-02  7.87370731369222754e-01  0.00000000000000000e+00
4.99999999999999958e-02  8.05555555555555469e-01  0.00000000000000000e+00
4.99999999999999958e-02  8.23740379741888185e-01  0.00000000000000000e+00
-5.00000000000000028e-02  8.88888888888888840e-01  0.00000000000000000e+00
-5.00000000000000028e-02  8.42926286924778334e-01  0.00000000000000000e+00
-5.00000000000000028e-02  8.61111111111111049e-01  0.00000000000000000e+00
-5.00000000000000028e-02  8.79295935297443765e-01  0.00000000000000000e+00
4.99999999999999958e-02  8.88888888888888840e-01  0.00000000000000000e+00
4.99999999999999958e-02  8.42926286924778334e-01  0.00000000000000000e+00
4.99999999999999958e-02  8.61111111111111049e-01  0.00000000000000000e+00
4.99999999999999958e-02  8.79295935297443765e-01  0.00000000000000000e+00
-5.00000000000000028e-02  9.44444444444444420e-01  0.00000000000000000e+00
-5.00000000000000028e-02  8.98481842480333914e-01  0.00000000000000000e+00
-5.00000000000000028e-02  9.16666666666666630e-01  0.00000000000000000e+00
-5.00000000000000028e-02  9.34851490852999345e-01  0.00000000000000000e+00
4.99999999999999958e-02  9.44444444444444420e-01  0.00000000000000000e+00
4.99999999999999958e-02  8.98481842480333914e-01  0.00000000000000000e+00
4.99999999999999958e-02  9.16666666666666630e-01  0.00000000000000000e+00
4.99999999999999958e-02  9.34851490852999345e-01  0.00000000000000000e+00
-5.00000000000000028e-02  1.00000000000000000e+00  0.00000000000000000e+00
-1.66666666666666699e-02  1.00000000000000000e+00  0.00000000000000000e+00
-5.00000000000000028e-02  9.54037398035889495e-01  0.00000000000000000e+00
-5.00000000000000028e-02  9.72222222222222210e-01  0.00000000000000000e+00
-5.00000000000000028e-02  9.90407046408554925e-01  0.00000000000000000e+00
-4.42442278451329538e-02  1.00000000000000000e+00  0.00000000000000000e+00
-3.33333333333333398e-02  1.00000000000000000e+00  0.00000000000000000e+00
-2.24224388215337189e-02  1.00000000000000000e+00  0.00000000000000000e+00
1.66666666666666630e-02  1.00000000000000000e+00  0.00000000000000000e+00
-1.09108945117996226e-02  1.00000000000000000e+00  0.00000000000000000e+00
-3.46944695195361419e-18  1.00000000000000000e+00  0.00000000000000000e+00
1.09108945117996139e-02  1.00000000000000000e+00  0.00000000000000000e+00
4.99999999999999958e-02  1.00000000000000000e+00  0.00000000000000000e+00
4.99999999999999958e-02  9.54037398035889495e-01  0.00000000000000000e+00
4.99999999999999958e-02  9.72222222222222210e-01  0.00000000000000000e+00
4.99999999999999958e-02  9.90407046408554925e-01  0.00000000000000000e+00
2.24224388215337120e-02  1.00000000000000000e+00  0.00000000000000000e+00
3.33333333333333259e-02  1.00000000000000000e+00  0.00000000000000000e+00
4.42442278451329468e-02  1.00000000000000000e+00  0.00000000000000000e+00

CELLS 0 0


CELL_TYPES 0


POINT_DATA 157

VECTORS VertexNormals double

0.00000000000000000e+00 0.00000000000000000e+00 0
0.00000000000000000e+00 0.00000000000000000e+00 0
0.00000000000000000e+00 0.00000000000000000e+00 0
0.00000000000000000e+00 0.00000000000000000e+00 0
0.00000000000000000e+00 0.00000000000000000e+00 0
0.00000000000000000e+00 0.00000000000000000e+00 0
0.00000000000000000e+00 0.00000000000000000e+00 0
0.00000000000000000e+00 0.00000000000000000e+00 0
0.00000000000000000e+00 0.00000000000000000e+00 0
0.00000000000000000e+00 0.00000000000000000e+00 0
0.00000000000000000e+00 0.00000000000000000e+00 0
0.00000000000000000e+00 0.00000000000000000e+00 0
0.00000000000000000e+00 0.00000000000000000e+00 0
0.00000000000000000e+00 0.00000000000000000e+00 0
0.00000000000000000e+00 0.00000000000000000e+00 0
0.00000000000000000e+00 0.00000000000000000e+00 0
0.00000000000000000e+00 0.00000000000000000e+00 0
0.00000000000000000e+00 0.00000000000000000e+00 0
0.00000000000000000e+00 0.00000000000000000e+00 0
0.00000000000000000e+00 0.00000000000000000e+00 0
0.00000000000000000e+00 0.00000000000000000e+00 0
0.00000000000000000e+00 0.00000000000000000e+00 0
0.00000000000000000e+00 0.00000000000000000e+00 0
0.00000000000000000e+00 0.00000000000000000e+00 0
0.00000000000000000e+00 0.00000000000000000e+00 0
0.00000000000000000e+00 0.00000000000000000e+00 0
0.00000000000000000e+00 0.00000000000000000e+00 0
0.00000000000000000e+00 0.00000000000000000e+00 0
0.00000000000000000e+00 0.00000000000000000e+00 0
0.00000000000000000e+00 0.00000000000000000e+00 0
0.00000000000000000e+00 0.00000000000000000e+00 0
0.00000000000000000e+00 0.00000000000000000e+00 0
0.00000000000000000e+00 0.00000000000000000e+00 0
0.00000000000000000e+00 0.00000000000000000e+00 0
0.00000000000000000e+00 0.00000000000000000e+00 0
0.00000000000000000e+00 0.00000000000000000e+00 0
0.00000000000000000e+00 0.00000000000000000e+00 0
0.00000000000000000e+00 0.00000000000000000e+00 0
0.00000000000000000e+00 0.00000000000000000e+00 0
0.00000000000000000e+00 0.00000000000000000e+00 0
0.00000000000000000e+00 0.00000000000000000e+00 0
0.00000000000000000e+00 0.00000000000000000e+00 0
0.00000000000000000e+00 0.00000000000000000e+00 0
0.00000000000000000e+00 0.00000000000000000e+00 0
0.00000000000000000e+00 0.00000000000000000e+00 0
0.00000000000000000e+00 0.00000000000000000e+00 0
0.00000000000000000e+00 0.00000000000000000e+00 0
0.00000000000000000e+00 0.00000000000000000e+00 0
0.00000000000000000e+00 0.00000000000000000e+00 0
0.00000000000000000e+00 0.00000000000000000e+00 0
0.00000000000000000e+00 0.00000000000000000e+00 0
0.00000000000000000e+00 0.00000000000000000e+00 0
0.00000000000000000e+00 0.00000000000000000e+00 0
0.00000000000000000e+00 0.00000000000000000e+00 0
0.00000000000000000e+00 0.00000000000000000e+00 0
0.00000000000000000e+00 0.00000000000000000e+00 0
0.00000000000000000e+00 0.00000000000000000e+00 0
0.00000000000000000e+00 0.00000000000000000e+00 0
0.00000000000000000e+00 0.00000000000000000e+00 0
0.00000000000000000e+00 0.00000000000000000e+00 0
0.00000000000000000e+00 0.00000000000000000e+00 0
0.00000000000000000e+00 0.00000000000000000e+00 0
0.00000000000000000e+00 0.00000000000000000e+00 0
0.00000000000000000e+00 0.00000000000000000e+00 0
0.00000000000000000e+00 0.00000000000000000e+00 0
0.00000000000000000e+00 0.00000000000000000e+00 0
0.00000000000000000e+00 0.00000000000000000e+00 0
0.00000000000000000e+00 0.00000000000000000e+00 0
0.00000000000000000e+00 0.00000000000000000e+00 0
0.00000000000000000e+00 0.00000000000000000e+00 0
0.00000000000000000e+00 0.00000000000000000e+00 0
0.00000000000000000e+00 0.00000000000000000e+00 0
0.00000000000000000e+00 0.00000000000000000e+00 0
0.00000000000000000e+00 0.00000000000000000e+00 0
0.00000000000000000e+00 0.00000000000000000e+00 0
0.00000000000000000e+00 0.00000000000000000e+00 0
0.00000000000000000e+00 0.00000000000000000e+00 0
0.00000000000000000e+00 0.00000000000000000e+00 0
0.00000000000000000e+00 0.00000000000000000e+00 0
0.00000000000000000e+00 0.00000000000000000e+00 0
0.00000000000000000e+00 0.00000000000000000e+00 0
0.00000000000000000e+00 0.00000000000000000e+00 0
0.00000000000000000e+00 0.00000000000000000e+00 0
0.00000000000000000e+00 0.00000000000000000e+00 0
0.00000000000000000e+00 0.00000000000000000e+00 0
0.00000000000000000e+00 0.00000000000000000e+00 0
0.00000000000000000e+00 0.00000000000000000e+00 0
0.00000000000000000e+00 0.00000000000000000e+00 0
0.00000000000000000e+00 0.00000000000000000e+00 0
0.00000000000000000e+00 0.00000000000000000e+00 0
0.00000000000000000e+00 0.00000000000000000e+00 0
0.00000000000000000e+00 0.00000000000000000e+00 0
0.00000000000000000e+00 0.00000000000000000e+00 0
0.00000000000000000e+00 0.00000000000000000e+00 0
0.00000000000000000e+00 0.00000000000000000e+00 0
0.00000000000000000e+00 0.00000000000000000e+00 0
0.00000000000000000e+00 0.00000000000000000e+00 0
0.00000000000000000e+00 0.00000000000000000e+00 0
0.00000000000000000e+00 0.00000000000000000e+00 0
0.00000000000000000e+00 0.00000000000000000e+00 0
0.00000000000000000e+00 0.00000000000000000e+00 0
0.00000000000000000e+00 0.00000000000000000e+00 0
0.00000000000000000e+00 0.00000000000000000e+00 0
0.00000000000000000e+00 0.00000000000000000e+00 0
0.00000000000000000e+00 0.00000000000000000e+00 0
0.00000000000000000e+00 0.00000000000000000e+00 0
0.00000000000000000e+00 0.00000000000000000e+00 0
0.00000000000000000e+00 0.00000000000000000e+00 0
0.00000000000000000e+00 0.00000000000000000e+00 0
0.00000000000000000e+00 0.00000000000000000e+00 0
0.00000000000000000e+00 0.00000000000000000e+00 0
0.00000000000000000e+00 0.00000000000000000e+00 0
0.00000000000000000e+00 0.00000000000000000e+00 0
0.00000000000000000e+00 0.00000000000000000e+00 0
0.00000000000000000e+00 0.00000000000000000e+00 0
0.00000000000000000e+00 0.00000000000000000e+00 0
0.00000000000000000e+00 0.00000000000000000e+00 0
0.00000000000000000e+00 0.00000000000000000e+00 0
0.00000000000000000e+00 0.00000000000000000e+00 0
0.00000000000000000e+00 0.00000000000000000e+00 0
0.00000000000000000e+00 0.00000000000000000e+00 0
0.00000000000000000e+00 0.00000000000000000e+00 0
0.00000000000000000e+00 0.00000000000000000e+00 0
0.00000000000000000e+00 0.00000000000000000e+00 0
0.00000000000000000e+00 0.00000000000000000e+00 0
0.00000000000000000e+00 0.00000000000000000e+00 0
0.00000000000000000e+00 0.00000000000000000e+00 0
0.00000000000000000e+00 0.00000000000000000e+00 0
0.00000000000000000e+00 0.00000000000000000e+00 0
0.00000000000000000e+00 0.00000000000000000e+00 0
0.00000000000000000e+00 0.00000000000000000e+00 0
0.00000000000000000e+00 0.00000000000000000e+00 0
0.00000000000000000e+00 0.00000000000000000e+00 0
0.00000000000000000e+00 0.00000000000000000e+00 0
0.00000000000000000e+00 0.00000000000000000e+00 0
0.00000000000000000e+00 0.00000000000000000e+00 0
0.00000000000000000e+00 0.00000000000000000e+00 0
0.00000000000000000e+00 0.00000000000000000e+00 0
0.00000000000000000e+00 0.00000000000000000e+00 0
0.00000000000000000e+00 0.00000000000000000e+00 0
0.00000000000000000e+00 0.00000000000000000e+00 0
0.00000000000000000e+00 0.00000000000000000e+00 0
0.00000000000000000e+00 0.00000000000000000e+00 0
0.00000000000000000e+00 0.00000000000000000e+00 0
0.00000000000000000e+00 0.00000000000000000e+00 0
0.00000000000000000e+00 0.00000000000000000e+00 0
0.00000000000000000e+00 0.00000000000000000e+00 0
0.00000000000000000e+00 0.00000000000000000e+00 0
0.00000000000000000e+00 0.00000000000000000e+00 0
0.00000000000000000e+00 0.00000000000000000e+00 0
0.00000000000000000e+00 0.00000000000000000e+00 0
0.00000000000000000e+00 0.00000000000000000e+00 0
0.00000000000000000e+00 0.00000000000000000e+00 0
0.00000000000000000e+00 0.00000000000000000e+00 0
0.00000000000000000e+00 0.00000000000000000e+00 0
0.00000000000000000e+00 0.00000000000000000e+00 0
0.00000000000000000e+00 0.00000000000000000e+00 0

VECTORS Displacement double
0.00000000000000000e+00 0.00000000000000000e+00 0
1.84424306806320070e-05 2.49549229676531502e-05 0
3.21528366423053821e-06 4.80574149883770793e-06 0
7.53267128884739032e-06 1.26799295617553623e-05 0
1.39833078805663036e-05 2.07433848560102309e-05 0
0.00000000000000000e+00 0.00000000000000000e+00 0
1.82945982989831322e-05 -2.46434207014292135e-05 0
3.14367633101015114e-06 -4.72564977031492519e-06 0
7.38505168372249199e-06 -1.25090268943655866e-05 0
1.38286362178303621e-05 -2.04850540057585321e-05 0
6.05378599078778071e-05 4.88417318536954391e-05 0
2.38190196257563696e-05 2.91938217235883500e-05 0
3.62010682116360410e-05 3.71052440692011066e-05 0
5.14250723997247006e-05 4.48260842402678654e-05 0
6.03876697625166229e-05 -4.82188407880508067e-05 0
2.36706903948281110e-05 -2.88263129358653090e-05 0
3.60386347058354184e-05 -3.66347301016396157e-05 0
5.12555885302215625e-05 -4.42589675607631133e-05 0
1.28375107436930815e-04 7.09490769967830690e-05 0
7.04556958481428755e-05 5.28151911625298313e-05 0
9.13617794077090084e-05 6.01764192427901772e-05 0
1.14914711920828446e-04 6.72940749593093452e-05 0
1.28225414054042097e-04 -7.00090246739209604e-05 0
7.03077670521846303e-05 -5.21302882067621910e-05 0
9.12049249376381207e-05 -5.93865979989628313e-05 0
1.14762003013952122e-04 -6.64069460722225305e-05 0
2.19534027745500764e-04 9.07606741183599749e-05 0
1.42499995559325251e-04 7.45410944818809270e-05 0
1.71180147120524690e-04 8.11688726164429367e-05 0
2.02239506985336064e-04 8.75219042070403690e-05 0
2.19385606050841945e-04 -8.94537084658483231e-05 0
1.42372524509297443e-04 -7.35421473203791979e-05 0
1.71062019133560089e-04 -8.00463077149694575e-05 0
2.02105066030569281e-04 -8.62776698439944139e-05 0
3.31074110403012086e-04 1.08113291592437329e-04 0
2.37446435943844923e-04 9.39186589744367900e-05 0
2.72935714092549118e-04 9.97128432259216199e-05 0
3.10466800163121870e-04 1.05276345783188459e-04 0
3.30918405394130515e-04 -1.06488472086605906e-04 0
2.37272393335281136e-04 -9.25542096425143487e-05 0
2.72760037100639710e-04 -9.82480612937063015e-05 0
3.10304519154341982e-04 -1.03708634805598377e-04 0
4.60395951798671561e-04 1.23207761611362560e-04 0
3.52220853984882578e-04 1.10877927427421443e-04 0
3.93695451041056938e-04 1.15928056622222541e-04 0
4.36901422632410741e-04 1.20750646302583792e-04 0
4.60254059142864869e-04 -1.21242030219415636e-04 0
3.52067238962582160e-04 -1.09193319023807828e-04 0
3.93543994973827120e-04 -1.14129071829740660e-04 0
4.36760680490275361e-04 -1.18841821651309527e-04 0
6.05135717769931299e-04 1.36068496929388682e-04 0
4.84363680386418183e-04 1.25598415830209173e-04 0
5.31037706725582940e-04 1.29929933521550489e-04 0
5.79175759320046534e-04 1.34009553174900753e-04 0
6.04979460643479913e-04 -1.33754087301207042e-04 0
4.84218475438480324e-04 -1.23575498473994647e-04 0
5.30876811910349611e-04 -1.27795463129737569e-04 0
5.79016683568463783e-04 -1.31758292281128494e-04 0
7.62722452873151055e-04 1.46658751478168705e-04 0
6.31487858905296299e-04 1.38065357719095190e-04 0
6.82482496577201006e-04 1.41665814409786943e-04 0
7.34730736721363122e-04 1.45002508075660921e-04 0
7.62544353367863598e-04 -1.43978496578537252e-04 0
6.31329802510667538e-04 -1.35687768143812640e-04 0
6.82311507617006595e-04 -1.39166514479482917e-04 0
7.34542208136702347e-04 -1.42383617286528366e-04 0
9.30489571911878696e-04 1.54913935145729881e-04 0
7.91034032156399318e-04 1.48250906185738506e-04 0
8.45489905039689942e-04 1.51074386166356146e-04 0
9.00898770805530101e-04 1.53653266765244512e-04 0
9.30320045419925088e-04 -1.51880199632100878e-04 0
7.90854512570764276e-04 -1.45508018429993673e-04 0
8.45315053520629789e-04 -1.48220452939174245e-04 0
9.00735600357213000e-04 -1.50682775890270074e-04 0
1.10581173202949318e-03 1.61065543687618286e-04 0
9.60268886119054342e-04 1.56111079951496958e-04 0
1.01732186135762397e-03 1.58228616150946050e-04 0
1.07508350101124021e-03 1.60138772836448338e-04 0
1.10564928350029485e-03 -1.57699609614269976e-04 0
9.60108586448705560e-04 -1.53017156073354682e-04 0
1.01715518033608813e-03 -1.55023970370233313e-04 0
1.07491675703921168e-03 -1.56831114755818770e-04 0
1.28648110863269498e-03 1.65432963406484469e-04 0
1.13671531955877197e-03 1.61930336250337378e-04 0
1.19561213426504502e-03 1.63425885658656603e-04 0
1.25497591070347246e-03 1.64776721906743500e-04 0
1.28635192946337544e-03 -1.61738824230794675e-04 0
1.13654473183234491e-03 -1.58505761120685223e-04 0
1.19546303064507818e-03 -1.59898825953428813e-04 0
1.25484393240324907e-03 -1.61141609238068774e-04 0
1.47082755204886958e-03 1.68412812005272564e-04 0
1.31810925444322607e-03 1.66046704691282014e-04 0
1.37832600139541962e-03 1.67087054111987604e-04 0
1.43880648440752683e-03 1.67984650599795510e-04 0
1.47069858627940316e-03 -1.64419699046375404e-04 0
1.31797720291092972e-03 -1.62291346061658667e-04 0
1.37818680282940365e-03 -1.63224091642606624e-04 0
1.43867579920942254e-03 -1.64034652935908271e-04 0
1.65738567258357145e-03 1.70322545788025031e-04 0
1.50292219057153757e-03 1.68809697067201205e-04 0
1.56393760950226902e-03 1.69474486771943334e-04 0
1.62507924430243156e-03 1.70044665737743281e-04 0
1.65728158200105090e-03 -1.66090648254528349e-04 0
1.50279510577204663e-03 -1.64773589834921630e-04 0
1.56380792660615483e-03 -1.65354454932071577e-04 0
1.62496484932510006e-03 -1.65850055281293696e-04 0
1.84541431224653405e-03 1.71646982873156849e-04 0
1.68974607418699140e-03 1.70590544897538147e-04 0
1.75123997942465632e-03 1.71062902974141107e-04 0
1.81288730774451174e-03 1.71466022835074842e-04 0
1.84530301244813059e-03 -1.67195209374975475e-04 0
1.68964677010941021e-03 -1.66319954890782905e-04 0
1.75113616990520268e-03 -1.66712710664601317e-04 0
1.81276661309202696e-03 -1.67040527482657705e-04 0
2.03445033320665859e-03 1.72499250903191239e-04 0
1.87798422313847262e-03 1.71823160828525151e-04 0
1.93980389587972602e-03 1.72124701236966586e-04 0
2.00173178576150933e-03 1.72385677205419289e-04 0
2.03436889852678894e-03 -1.67845665416362192e-04 0
1.87787553233051342e-03 -1.67342175194050197e-04 0
1.93971295347453773e-03 -1.67587929233546548e-04 0
2.00165925900797851e-03 -1.67775888229344377e-04 0
2.22399238816067824e-03 1.72882418850439510e-04 0
2.06714775704536008e-03 1.72586378238352765e-04 0
2.12917689796845132e-03 1.72727350827720351e-04 0
2.19123805892080517e-03 1.72835392516668861e-04 0
2.22390767813172461e-03 -1.68062089830018849e-04 0
2.06706811407160983e-03 -1.67905254791450836e-04 0
2.12908928934656908e-03 -1.67994731853454119e-04 0
2.19115328560223060e-03 -1.68050304669266018e-04 0
2.41348504910892650e-03 1.72921597101378439e-04 0
2.25676864095643607e-03 1.72909387594654567e-04 0
2.31878756160215074e-03 1.72904859917406660e-04 0
2.38077404829225951e-03 1.72908896601403275e-04 0
2.41343995272695969e-03 -1.67993262600290080e-04 0
2.25666914796185912e-03 -1.68053740569460152e-04 0
2.31870172672957913e-03 -1.68029911137677418e-04 0
2.38071892571998719e-03 -1.68006221244511078e-04 0
2.60288094863689746e-03 1.72939930941669583e-04 0
2.60288548545811000e-03 5.93167157558994817e-05 0
2.44621362218355428e-03 1.72939268981074060e-04 0
2.50823861201513246e-03 1.72954220157579434e-04 0
2.57019393190822823e-03 1.72940653467133629e-04 0
2.60288334867982488e-03 1.53329908554599212e-04 0
2.60289553658790175e-03 1.16156009592380578e-04 0
2.60289105182585868e-03 7.89440737988662507e-05 0
2.60284790617305774e-03 -5.43341196473565350e-05 0
2.60288300600173758e-03 3.96965435115338689e-05 0
2.60287941874875117e-03 2.50499495924154984e-06 0
2.60286061415318471e-03 -3.47082123613734274e-05 0
2.60280569825027935e-03 -1.67926925495437765e-04 0
2.44616871028279599e-03 -1.67975315322124616e-04 0
2.50817197949887698e-03 -1.67937573586418950e-04 0
2.57011539379037399e-03 -1.67924064052790971e-04 0
2.60283773568196998e-03 -7.39506401586672001e-05 0
2.60282273249594440e-03 -1.11125532539870157e-04 0
2.60280794672415518e-03 -1.48308865298887573e-04 0

VECTORS Force double
1.96946605335181935e-01 8.02151885418741226e-04 0
-9.30999114485632107e-01 5.16829493581305176e-04 0
-9.45441424049881629e-01 -2.84093837237846657e-05 0
7.41294883327966758e+00 -4.85775809963481364e-03 0
3.57478300074985356e+00 -2.33561816561130920e-03 0
6.87058928192568197e-02 8.35674305758165865e-04 0
-3.49009757710623369e-01 4.59498700661531531e-04 0
-3.51471266795202797e-01 -2.03576018547810196e-04 0
2.78237034136713346e+00 -3.50884703896237700e-03 0
1.34204783161935381e+00 -1.70872016651603159e-03 0
-8.33630453007530581e-01 3.37846158733314753e-03 0
-5.11378667265575612e-02 4.59804230523761773e-04 0
6.00753927447132963e-01 -2.44101818261294092e-03 0
9.59145860406825612e+00 -3.78154473803487615e-02 0
-3.08556341529669487e-01 -1.06062104663973765e-04 0
-1.77148337004622847e-02 -2.43271541351743092e-05 0
2.22244335272357707e-01 1.67684968313168569e-05 0
3.54919446915977366e+00 9.97399565850337014e-04 0
9.38244795775599272e+00 -5.26185377816401553e-02 0
9.72500207959546836e-02 -4.56185735578559337e-04 0
-1.84547313250838542e-02 6.90230975198429561e-05 0
2.61539112989494886e-02 2.66721147282593175e-05 0
3.40405465605437874e+00 3.42714897862530232e-02 0
3.57748689024605937e-02 -4.76936623068713613e-06 0
-7.24470592194416309e-03 5.86251559024078542e-06 0
9.12722623191674493e-03 2.56437985746899856e-05 0
-8.47703517218566405e-01 4.17879038086782072e-03 0
2.76876718937360822e-02 -2.85573661314332883e-05 0
-1.81318443404705348e-02 5.03638722322963963e-06 0
9.62837994407423903e-02 -5.55567019561850920e-04 0
-3.01944928739317608e-01 -8.42264456195978423e-03 0
9.86324810783856427e-03 -9.90708516786045383e-06 0
-7.01042077759958786e-03 -1.53774350197681992e-04 0
3.40330466107359245e-02 1.03945572664946488e-03 0
-9.63047182604349850e-01 6.23700594276881647e-04 0
9.75732492876283608e+00 -4.64570166609918761e-02 0
6.10813129221366435e-01 -2.92606983302882723e-03 0
-5.47869417707393114e-02 5.31504810600346204e-04 0
-3.37627364798801899e-01 -1.70736389241330985e-02 0
3.47358758383619826e+00 9.34369040512526006e-02 0
2.17422182996010072e-01 5.61449333094358322e-03 0
-1.96466725754479016e-02 2.03556657272614292e-04 0
4.83471155919083628e-01 1.49473621374212381e-03 0
3.69466982286878887e+00 -2.86764677134046173e-03 0
7.64593037565273281e+00 -5.89232967801713026e-03 0