# vtk DataFile Version 2.0

ASCII

DATASET UNSTRUCTURED_GRID

POINTS 79 float 

-5.0000000000000003e-02  0.0000000000000000e+00  0.0000000000000000e+00
-5.0000000000000003e-02  5.5555555555555552e-02  0.0000000000000000e+00
-5.0000000000000003e-02  2.7777777777777776e-02  0.0000000000000000e+00
5.0000000000000003e-02  0.0000000000000000e+00  0.0000000000000000e+00
5.0000000000000003e-02  5.5555555555555552e-02  0.0000000000000000e+00
5.0000000000000003e-02  2.7777777777777776e-02  0.0000000000000000e+00
-5.0000000000000003e-02  1.1111111111111110e-01  0.0000000000000000e+00
-5.0000000000000003e-02  8.3333333333333329e-02  0.0000000000000000e+00
5.0000000000000003e-02  1.1111111111111110e-01  0.0000000000000000e+00
5.0000000000000003e-02  8.3333333333333329e-02  0.0000000000000000e+00
-5.0000000000000003e-02  1.6666666666666666e-01  0.0000000000000000e+00
-5.0000000000000003e-02  1.3888888888888890e-01  0.0000000000000000e+00
5.0000000000000003e-02  1.6666666666666666e-01  0.0000000000000000e+00
5.0000000000000003e-02  1.3888888888888890e-01  0.0000000000000000e+00
-5.0000000000000003e-02  2.2222222222222221e-01  0.0000000000000000e+00
-5.0000000000000003e-02  1.9444444444444442e-01  0.0000000000000000e+00
5.0000000000000003e-02  2.2222222222222221e-01  0.0000000000000000e+00
5.0000000000000003e-02  1.9444444444444442e-01  0.0000000000000000e+00
-5.0000000000000003e-02  2.7777777777777779e-01  0.0000000000000000e+00
-5.0000000000000003e-02  2.5000000000000000e-01  0.0000000000000000e+00
5.0000000000000003e-02  2.7777777777777779e-01  0.0000000000000000e+00
5.0000000000000003e-02  2.5000000000000000e-01  0.0000000000000000e+00
-5.0000000000000003e-02  3.3333333333333331e-01  0.0000000000000000e+00
-5.0000000000000003e-02  3.0555555555555558e-01  0.0000000000000000e+00
5.0000000000000003e-02  3.3333333333333331e-01  0.0000000000000000e+00
5.0000000000000003e-02  3.0555555555555558e-01  0.0000000000000000e+00
-5.0000000000000003e-02  3.8888888888888884e-01  0.0000000000000000e+00
-5.0000000000000003e-02  3.6111111111111105e-01  0.0000000000000000e+00
5.0000000000000003e-02  3.8888888888888884e-01  0.0000000000000000e+00
5.0000000000000003e-02  3.6111111111111105e-01  0.0000000000000000e+00
-5.0000000000000003e-02  4.4444444444444442e-01  0.0000000000000000e+00
-5.0000000000000003e-02  4.1666666666666663e-01  0.0000000000000000e+00
5.0000000000000003e-02  4.4444444444444442e-01  0.0000000000000000e+00
5.0000000000000003e-02  4.1666666666666663e-01  0.0000000000000000e+00
-5.0000000000000003e-02  5.0000000000000000e-01  0.0000000000000000e+00
-5.0000000000000003e-02  4.7222222222222221e-01  0.0000000000000000e+00
5.0000000000000003e-02  5.0000000000000000e-01  0.0000000000000000e+00
5.0000000000000003e-02  4.7222222222222221e-01  0.0000000000000000e+00
-5.0000000000000003e-02  5.5555555555555558e-01  0.0000000000000000e+00
-5.0000000000000003e-02  5.2777777777777779e-01  0.0000000000000000e+00
5.0000000000000003e-02  5.5555555555555558e-01  0.0000000000000000e+00
5.0000000000000003e-02  5.2777777777777779e-01  0.0000000000000000e+00
-5.0000000000000003e-02  6.1111111111111105e-01  0.0000000000000000e+00
-5.0000000000000003e-02  5.8333333333333326e-01  0.0000000000000000e+00
5.0000000000000003e-02  6.1111111111111105e-01  0.0000000000000000e+00
5.0000000000000003e-02  5.8333333333333326e-01  0.0000000000000000e+00
-5.0000000000000003e-02  6.6666666666666663e-01  0.0000000000000000e+00
-5.0000000000000003e-02  6.3888888888888884e-01  0.0000000000000000e+00
5.0000000000000003e-02  6.6666666666666663e-01  0.0000000000000000e+00
5.0000000000000003e-02  6.3888888888888884e-01  0.0000000000000000e+00
-5.0000000000000003e-02  7.2222222222222221e-01  0.0000000000000000e+00
-5.0000000000000003e-02  6.9444444444444442e-01  0.0000000000000000e+00
5.0000000000000003e-02  7.2222222222222221e-01  0.0000000000000000e+00
5.0000000000000003e-02  6.9444444444444442e-01  0.0000000000000000e+00
-5.0000000000000003e-02  7.7777777777777768e-01  0.0000000000000000e+00
-5.0000000000000003e-02  7.5000000000000000e-01  0.0000000000000000e+00
5.0000000000000003e-02  7.7777777777777768e-01  0.0000000000000000e+00
5.0000000000000003e-02  7.5000000000000000e-01  0.0000000000000000e+00
-5.0000000000000003e-02  8.3333333333333326e-01  0.0000000000000000e+00
-5.0000000000000003e-02  8.0555555555555547e-01  0.0000000000000000e+00
5.0000000000000003e-02  8.3333333333333326e-01  0.0000000000000000e+00
5.0000000000000003e-02  8.0555555555555547e-01  0.0000000000000000e+00
-5.0000000000000003e-02  8.8888888888888884e-01  0.0000000000000000e+00
-5.0000000000000003e-02  8.6111111111111105e-01  0.0000000000000000e+00
5.0000000000000003e-02  8.8888888888888884e-01  0.0000000000000000e+00
5.0000000000000003e-02  8.6111111111111105e-01  0.0000000000000000e+00
-5.0000000000000003e-02  9.4444444444444442e-01  0.0000000000000000e+00
-5.0000000000000003e-02  9.1666666666666663e-01  0.0000000000000000e+00
5.0000000000000003e-02  9.4444444444444442e-01  0.0000000000000000e+00
5.0000000000000003e-02  9.1666666666666663e-01  0.0000000000000000e+00
-5.0000000000000003e-02  1.0000000000000000e+00  0.0000000000000000e+00
-1.6666666666666670e-02  1.0000000000000000e+00  0.0000000000000000e+00
-5.0000000000000003e-02  9.7222222222222221e-01  0.0000000000000000e+00
-3.3333333333333340e-02  1.0000000000000000e+00  0.0000000000000000e+00
1.6666666666666663e-02  1.0000000000000000e+00  0.0000000000000000e+00
-3.4694469519536142e-18  1.0000000000000000e+00  0.0000000000000000e+00
5.0000000000000003e-02  1.0000000000000000e+00  0.0000000000000000e+00
5.0000000000000003e-02  9.7222222222222221e-01  0.0000000000000000e+00
3.3333333333333333e-02  1.0000000000000000e+00  0.0000000000000000e+00

CELLS 0 0


CELL_TYPES 0


POINT_DATA 79

VECTORS VertexNormals float

0.0000000000000000e+00 0.0000000000000000e+00 0
0.0000000000000000e+00 0.0000000000000000e+00 0
0.0000000000000000e+00 0.0000000000000000e+00 0
0.0000000000000000e+00 0.0000000000000000e+00 0
0.0000000000000000e+00 0.0000000000000000e+00 0
0.0000000000000000e+00 0.0000000000000000e+00 0
0.0000000000000000e+00 0.0000000000000000e+00 0
0.0000000000000000e+00 0.0000000000000000e+00 0
0.0000000000000000e+00 0.0000000000000000e+00 0
0.0000000000000000e+00 0.0000000000000000e+00 0
0.0000000000000000e+00 0.0000000000000000e+00 0
0.0000000000000000e+00 0.0000000000000000e+00 0
0.0000000000000000e+00 0.0000000000000000e+00 0
0.0000000000000000e+00 0.0000000000000000e+00 0
0.0000000000000000e+00 0.0000000000000000e+00 0
0.0000000000000000e+00 0.0000000000000000e+00 0
0.0000000000000000e+00 0.0000000000000000e+00 0
0.0000000000000000e+00 0.0000000000000000e+00 0
0.0000000000000000e+00 0.0000000000000000e+00 0
0.0000000000000000e+00 0.0000000000000000e+00 0
0.0000000000000000e+00 0.0000000000000000e+00 0
0.0000000000000000e+00 0.0000000000000000e+00 0
0.0000000000000000e+00 0.0000000000000000e+00 0
0.0000000000000000e+00 0.0000000000000000e+00 0
0.0000000000000000e+00 0.0000000000000000e+00 0
0.0000000000000000e+00 0.0000000000000000e+00 0
0.0000000000000000e+00 0.0000000000000000e+00 0
0.0000000000000000e+00 0.0000000000000000e+00 0
0.0000000000000000e+00 0.0000000000000000e+00 0
0.0000000000000000e+00 0.0000000000000000e+00 0
0.0000000000000000e+00 0.0000000000000000e+00 0
0.0000000000000000e+00 0.0000000000000000e+00 0
0.0000000000000000e+00 0.0000000000000000e+00 0
0.0000000000000000e+00 0.0000000000000000e+00 0
0.0000000000000000e+00 0.0000000000000000e+00 0
0.0000000000000000e+00 0.0000000000000000e+00 0
0.0000000000000000e+00 0.0000000000000000e+00 0
0.0000000000000000e+00 0.0000000000000000e+00 0
0.0000000000000000e+00 0.0000000000000000e+00 0
0.0000000000000000e+00 0.0000000000000000e+00 0
0.0000000000000000e+00 0.0000000000000000e+00 0
0.0000000000000000e+00 0.0000000000000000e+00 0
0.0000000000000000e+00 0.0000000000000000e+00 0
0.0000000000000000e+00 0.0000000000000000e+00 0
0.0000000000000000e+00 0.0000000000000000e+00 0
0.0000000000000000e+00 0.0000000000000000e+00 0
0.0000000000000000e+00 0.0000000000000000e+00 0
0.0000000000000000e+00 0.0000000000000000e+00 0
0.0000000000000000e+00 0.0000000000000000e+00 0
0.0000000000000000e+00 0.0000000000000000e+00 0
0.0000000000000000e+00 0.0000000000000000e+00 0
0.0000000000000000e+00 0.0000000000000000e+00 0
0.0000000000000000e+00 0.0000000000000000e+00 0
0.0000000000000000e+00 0.0000000000000000e+00 0
0.0000000000000000e+00 0.0000000000000000e+00 0
0.0000000000000000e+00 0.0000000000000000e+00 0
0.0000000000000000e+00 0.0000000000000000e+00 0
0.0000000000000000e+00 0.0000000000000000e+00 0
0.0000000000000000e+00 0.0000000000000000e+00 0
0.0000000000000000e+00 0.0000000000000000e+00 0
0.0000000000000000e+00 0.0000000000000000e+00 0
0.0000000000000000e+00 0.0000000000000000e+00 0
0.0000000000000000e+00 0.0000000000000000e+00 0
0.0000000000000000e+00 0.0000000000000000e+00 0
0.0000000000000000e+00 0.0000000000000000e+00 0
0.0000000000000000e+00 0.0000000000000000e+00 0
0.0000000000000000e+00 0.0000000000000000e+00 0
0.0000000000000000e+00 0.0000000000000000e+00 0
0.0000000000000000e+00 0.0000000000000000e+00 0
0.0000000000000000e+00 0.0000000000000000e+00 0
0.0000000000000000e+00 0.0000000000000000e+00 0
0.0000000000000000e+00 0.0000000000000000e+00 0
0.0000000000000000e+00 0.0000000000000000e+00 0
0.0000000000000000e+00 0.0000000000000000e+00 0
0.0000000000000000e+00 0.0000000000000000e+00 0
0.0000000000000000e+00 0.0000000000000000e+00 0
0.0000000000000000e+00 0.0000000000000000e+00 0
0.0000000000000000e+00 0.0000000000000000e+00 0
0.0000000000000000e+00 0.0000000000000000e+00 0

VECTORS Displacement float
0.0000000000000000e+00 0.0000000000000000e+00 0
1.6478409535233174e-03 2.0487522476286520e-03 0
6.7515415344385991e-04 1.0369949112698580e-03 0
0.0000000000000000e+00 0.0000000000000000e+00 0
1.8191337965828792e-03 -2.3328123401619404e-03 0
7.8303203802598874e-04 -1.2035558991452854e-03 0
5.4071713762063149e-03 3.9725204971480348e-03 0
3.2681839903639909e-03 3.0513009069185236e-03 0
5.5244796072869227e-03 -4.4695346609970755e-03 0
3.4418925588120567e-03 -3.4342832007291700e-03 0
1.1215183115530662e-02 5.5708246153725665e-03 0
8.0800765229868086e-03 4.7941521123243801e-03 0
1.1372217275122689e-02 -6.3440688844327089e-03 0
8.1895763229076751e-03 -5.4381416277743035e-03 0
1.8748676056225919e-02 7.1093611479457882e-03 0
1.4755029538447064e-02 6.3433555269751668e-03 0
1.8855264028826636e-02 -8.0130919168724807e-03 0
1.4919879351150229e-02 -7.1841922630949224e-03 0
2.7988138645847482e-02 8.4895978652678034e-03 0
2.3200829619487530e-02 7.8074383830932575e-03 0
2.8083039979081056e-02 -9.6134312841697420e-03 0
2.3262832271481251e-02 -8.8169626904468570e-03 0
3.8952876258589592e-02 9.9668543133927014e-03 0
3.3211906962554216e-02 9.2275669277748235e-03 0
3.9054559270104969e-02 -1.1209414202139216e-02 0
3.3339316131570235e-02 -1.0423833315315240e-02 0
5.1650921313079953e-02 1.1396474157232451e-02 0
4.5089817017061294e-02 1.0683890324937136e-02 0
5.1807592262066986e-02 -1.2716230398581808e-02 0
4.5193498851922892e-02 -1.1978018413692212e-02 0
6.6009698000172229e-02 1.2743352842980603e-02 0
5.8624886518164027e-02 1.2091306601965262e-02 0
6.6095594004024982e-02 -1.4083264857179218e-02 0
5.8785445431990394e-02 -1.3403189231681555e-02 0
8.1857834555427708e-02 1.3771325689247665e-02 0
7.3784900278147936e-02 1.3302495715502566e-02 0
8.1984428904168627e-02 -1.5290033806426236e-02 0
7.3843124378150410e-02 -1.4734738363284624e-02 0
9.8672241127824231e-02 1.4418596099331396e-02 0
9.0171216899016970e-02 1.4142489309638439e-02 0
9.8798607573028760e-02 -1.5991405632677255e-02 0
9.0343050445774148e-02 -1.5694603918062360e-02 0
1.1584218871206775e-01 1.4755988834920250e-02 0
1.0726047851924805e-01 1.4591398103576498e-02 0
1.1593417822304020e-01 -1.6444781757124188e-02 0
1.0731788626162689e-01 -1.6225289442499680e-02 0
1.3338388814472202e-01 1.5246056170112543e-02 0
1.2451034519324936e-01 1.4997409107738887e-02 0
1.3352385386355925e-01 -1.6847128751756993e-02 0
1.2468407863504927e-01 -1.6651734815929988e-02 0
1.5154565128758610e-01 1.5511586660165968e-02 0
1.4243589538836371e-01 1.5415928024721175e-02 0
1.5159189837339215e-01 -1.7225548649073111e-02 0
1.4248053000645505e-01 -1.7050912060186142e-02 0
1.6990595240716963e-01 1.5651229347015030e-02 0
1.6066645195423973e-01 1.5587950793296015e-02 0
1.7002425115749245e-01 -1.7398381034960605e-02 0
1.6078851419813667e-01 -1.7332249635759880e-02 0
1.8834688353277099e-01 1.5594423090183097e-02 0
1.7918213987557921e-01 1.5630718060071939e-02 0
1.8845299502361695e-01 -1.7481013834694002e-02 0
1.7925797427232454e-01 -1.7442365219266332e-02 0
2.0668991067678938e-01 1.5686881407534357e-02 0
1.9747512010392843e-01 1.5626565753179507e-02 0
2.0686038770909548e-01 -1.7565808296801749e-02 0
1.9765216959512413e-01 -1.7523705805330751e-02 0
2.2528017418864851e-01 1.5755098497704075e-02 0
2.1598397802265565e-01 1.5726302277561853e-02 0
2.2532737070380615e-01 -1.7661760799551198e-02 0
2.1607611402674626e-01 -1.7606924513318793e-02 0
2.4392078732599057e-01 1.5826117625965433e-02 0
2.4393301333379511e-01 4.5880283710382514e-03 0
2.3458094254816872e-01 1.5800545496984696e-02 0
2.4392351480563385e-01 1.0206988068401968e-02 0
2.4392285744580017e-01 -6.5605098560462234e-03 0
2.4393281615066570e-01 -1.0008269219356903e-03 0
2.4391202325821681e-01 -1.7687601989242942e-02 0
2.3462305331715888e-01 -1.7689474631706309e-02 0
2.4391559245094591e-01 -1.2120862415612371e-02 0

VECTORS Stress float
1.5307684693481110e+02 -1.8908815646572723e+01 0
1.4793961902864405e+02 -4.1786195938663591e+00 0
1.4923667776643316e+02 -6.1727279713512369e+00 0
-1.7356637191049060e+01 -1.1153968622228312e+01 0
-2.3745336925683016e+01 3.3459512339954776e+00 0
-2.2211973523082797e+01 -4.5823618518727705e-01 0
1.4872830285772753e+02 -1.2814330215761098e+01 0
1.4827304400999745e+02 -8.3348741984175927e+00 0
-2.2818502686219979e+01 1.7779190775041367e+00 0
-2.3380352559870165e+01 2.7855829240890078e+00 0
1.4828131814617748e+02 -1.7301864154098009e+01 0
1.4856569697834684e+02 -1.5294435459450529e+01 0
-2.2780363072954767e+01 2.8760926440382146e+00 0
-2.2742576052226461e+01 2.2390090934216689e+00 0
1.4723273843670435e+02 -2.1676037120860482e+01 0
1.4777953552818147e+02 -1.9473128524187118e+01 0
-2.2279759260594744e+01 3.5345898135821487e+00 0
-2.2542608282573966e+01 3.2847139914400674e+00 0
1.4533418098424613e+02 -2.5667994036909668e+01 0
1.4640488254152228e+02 -2.3737109341200355e+01 0
-2.1423891178271617e+01 4.0776876164856422e+00 0
-2.1883911402575698e+01 3.7916062265874015e+00 0
1.4242011998272079e+02 -2.9403299048255569e+01 0
1.4407000767433681e+02 -2.7555156356402271e+01 0
-2.0292752694369064e+01 4.5473135279099797e+00 0
-2.0946846459045496e+01 4.3322091716796418e+00 0
1.3857647540294968e+02 -3.2822870622400572e+01 0
1.4065081587325892e+02 -3.1206457467008118e+01 0
-1.8848032614808726e+01 4.8044930326634896e+00 0
-1.9661848684954094e+01 4.7317542095612302e+00 0
1.3404413060217846e+02 -3.5577097653524405e+01 0
1.3637034676403118e+02 -3.4305263687442924e+01 0
-1.7033880667542622e+01 4.8294144587945453e+00 0
-1.7981644776480291e+01 4.8483939745607110e+00 0
1.2914187063408281e+02 -3.7330208516548616e+01 0
1.3158217589081414e+02 -3.6571733735031103e+01 0
-1.4816751869481422e+01 4.6083368801122520e+00 0
-1.5948000565178852e+01 4.7270204741262232e+00 0
1.2423941628437257e+02 -3.7588073383068178e+01 0
1.2668090635550436e+02 -3.7589706405327071e+01 0
-1.2168322138240637e+01 3.8928208606946662e+00 0
-1.3512943260611046e+01 4.2455988241489431e+00 0
1.1917970769272597e+02 -3.6698396822990311e+01 0
1.2176198671596245e+02 -3.7254186586162632e+01 0
-9.3595970518962375e+00 3.1001386291360920e+00 0
-1.0767217339643551e+01 3.5010221814522122e+00 0
1.1314525060069052e+02 -3.5799351041688610e+01 0
1.1635805016234467e+02 -3.6179131366835172e+01 0
-6.6685250714211897e+00 2.3145801657954799e+00 0
-8.0015011381297363e+00 2.7277916239106528e+00 0
1.0609600169115024e+02 -3.4573992318588196e+01 0
1.0969861483045631e+02 -3.5348322332943894e+01 0
-4.1499255475466867e+00 1.5425676425656221e+00 0
-5.3987584076732524e+00 1.9587477859690665e+00 0
9.8375358002900470e+01 -3.2415990207352827e+01 0
1.0231050131232647e+02 -3.3549155956342673e+01 0
-1.6440015637493914e+00 7.0843949194937217e-01 0
-2.9089546684681906e+00 1.1604788068965668e+00 0
8.9482326641096734e+01 -2.9181984818575334e+01 0
9.4209138526481183e+01 -3.1102778240004973e+01 0
7.7954718946886459e-01 -3.6104155134406568e-02 0
-3.7340547971059834e-01 1.8759381193500246e-01 0
7.7847517189914157e+01 -2.4224885678893489e+01 0
8.3950606748381858e+01 -2.6182633921148145e+01 0
2.6319207005180587e+00 -1.0680002861601068e-01 0
1.6802483983535978e+00 1.8604471773971909e-01 0
6.5007670647619946e+01 -3.2003546047144596e+01 0
7.2202302222454051e+01 -2.9026700544778357e+01 0
5.5846475834869125e+00 -5.5184495064650907e+00 0
4.2730996289504972e+00 -3.3563640028841988e+00 0
3.0315802391177186e+01 4.9858797365456617e+01 0
1.3914329080887960e+01 4.7427055453017068e+01 0
5.1134348098245475e+01 -8.8171783681237148e+00 0
1.8807628377812968e+01 5.5454194925458559e+01 0
1.0267596501698684e+01 2.5736942208764262e+01 0
1.1801085682053490e+01 3.5442966313576981e+01 0
-3.1844218579225441e+00 2.1793262559981152e+01 0
4.1939988273339068e+00 9.8292451053877805e-01 0
6.5233062147672811e+00 2.0002262306676130e+01 0

