/*--------------------------------*- C++ -*----------------------------------*\
| =========                 |                                                 |
| \\      /  F ield         | OpenFOAM: The Open Source CFD Toolbox           |
|  \\    /   O peration     | Version:  5.x                                   |
|   \\  /    A nd           | Web:      www.OpenFOAM.org                      |
|    \\/     M anipulation  |                                                 |
\*---------------------------------------------------------------------------*/
FoamFile
{
    version     2.0;
    format      ascii;
    class       volVectorField;
    location    "3.7";
    object      Force;
}
// * * * * * * * * * * * * * * * * * * * * * * * * * * * * * * * * * * * * * //

dimensions      [1 1 -2 0 0 0 0];

internalField   uniform (0 0 0);

boundaryField
{
    inlet
    {
        type            calculated;
        value           uniform (0 0 0);
    }
    outlet
    {
        type            calculated;
        value           uniform (0 0 0);
    }
    flap
    {
        type            calculated;
        value           nonuniform List<vector> 
33
(
(3.88675 -2.35099e-38 -0.14479)
(3.84311 1.74326e-18 -0.27475)
(3.80555 -2.54584e-18 -0.367778)
(3.77168 -2.5462e-18 -0.405569)
(3.74045 -4.70198e-38 -0.399382)
(3.70837 -2.41592e-22 -0.358623)
(3.67446 2.52319e-18 -0.294992)
(3.63802 -1.2707e-23 -0.222665)
(3.59273 -1.58238e-18 -0.155874)
(3.52976 -3.35179e-22 -0.104178)
(3.4366 -9.37139e-22 -0.0690266)
(3.29953 -1.05196e-18 -0.0473816)
(3.09491 -4.93616e-40 -0.03464)
(2.76826 1.62208e-18 -0.0256598)
(2.16531 1.82986e-19 -0.0174344)
(0.00877215 8.46685e-19 0.504568)
(0.00337082 1.25115e-20 0.300379)
(-0.000137575 -4.06364e-21 0.0972593)
(-0.0529368 1.48919e-18 0.00195987)
(-0.0528989 1.53091e-18 0.00369469)
(-0.0522037 -1.60838e-18 0.00485102)
(-0.0509815 1.57614e-18 0.00518412)
(-0.0498414 1.60838e-18 0.0049431)
(-0.049631 -3.33819e-20 0.00436614)
(-0.0509574 1.67893e-18 0.00363416)
(-0.0540518 -4.55027e-24 0.00287756)
(-0.058494 5.51013e-40 0.0021746)
(-0.0635018 -1.06353e-22 0.00160662)
(-0.0681312 1.65485e-18 0.00123458)
(-0.0719086 1.65814e-18 0.00115691)
(-0.073498 2.1175e-24 0.00121112)
(-0.0696491 1.63876e-18 0.00134321)
(-0.0572317 4.76405e-21 0.00146346)
)
;
    }
    upperWall
    {
        type            calculated;
        value           uniform (0 0 0);
    }
    lowerWall
    {
        type            calculated;
        value           uniform (0 0 0);
    }
    frontAndBack
    {
        type            empty;
    }
}


// ************************************************************************* //
