/*--------------------------------*- C++ -*----------------------------------*\
| =========                 |                                                 |
| \\      /  F ield         | OpenFOAM: The Open Source CFD Toolbox           |
|  \\    /   O peration     | Version:  5.x                                   |
|   \\  /    A nd           | Web:      www.OpenFOAM.org                      |
|    \\/     M anipulation  |                                                 |
\*---------------------------------------------------------------------------*/
FoamFile
{
    version     2.0;
    format      ascii;
    class       surfaceVectorField;
    location    "3.7";
    object      Uf;
}
// * * * * * * * * * * * * * * * * * * * * * * * * * * * * * * * * * * * * * //

dimensions      [0 1 -1 0 0 0 0];

internalField   nonuniform List<vector> 
5457
(
(9.91778 -4.11795e-21 0.0250972)
(9.97081 0 0.038864)
(9.81839 -4.00883e-21 0.0326128)
(9.92666 8.04873e-21 0.0482295)
(9.70185 -2.15839e-21 0.0389402)
(9.85184 -4.12236e-21 0.0581136)
(9.56582 -2.10078e-21 0.0455085)
(9.75175 8.36669e-21 0.069691)
(9.41026 -4.58186e-21 0.0523211)
(9.63142 -4.29913e-21 0.0818714)
(9.23535 1.20369e-20 0.0594135)
(9.49171 -1.12661e-22 0.094558)
(9.04083 5.16057e-21 0.0669273)
(9.33196 1.40136e-20 0.107992)
(8.82613 -9.98764e-21 0.0750064)
(9.15139 -9.59299e-21 0.122409)
(8.59041 -9.74137e-21 0.0837757)
(8.94929 1.95461e-23 0.137998)
(8.33266 7.32824e-22 0.0933534)
(8.72482 2.9651e-20 0.154932)
(8.05173 1.0536e-20 0.103859)
(8.47692 -7.17858e-20 0.173382)
(7.74635 0 0.115414)
(8.20438 4.25296e-20 0.193513)
(7.41516 5.00847e-20 0.128135)
(7.90587 5.55855e-21 0.215482)
(7.05679 9.92879e-21 0.142135)
(7.58001 4.94354e-20 0.239421)
(6.66993 -3.78456e-20 0.157503)
(7.2254 -5.04824e-20 0.265415)
(6.25342 1.45721e-20 0.174295)
(6.84073 2.0492e-19 0.29348)
(5.80646 1.41908e-20 0.192512)
(6.42493 4.12042e-21 0.323518)
(5.32872 1.32828e-19 0.212076)
(5.97725 -2.79982e-19 0.355282)
(4.82067 -4.59882e-20 0.23279)
(5.49758 1.31085e-19 0.388314)
(4.28378 -1.7072e-19 0.254291)
(4.98662 -6.50267e-19 0.421877)
(3.72094 0 0.276003)
(4.44624 1.21001e-18 0.454875)
(3.13673 -8.84132e-20 0.297081)
(3.8798 -5.71269e-19 0.485792)
(2.53786 1.06234e-19 0.316366)
(3.29256 1.43435e-19 0.512641)
(1.93328 1.23915e-18 0.332428)
(2.69204 1.35594e-18 0.532967)
(1.33418 -1.21416e-19 0.344473)
(2.08851 8.685e-19 0.544105)
(0.751711 -1.11852e-18 0.356091)
(1.49433 -2.48747e-18 0.545066)
(0.185192 2.13919e-18 0.249742)
(0.944604 3.36729e-18 0.544514)
(-0.232787 -9.50586e-20 -0.072859)
(0.348873 2.11864e-18 0.408391)
(-0.301635 -9.77981e-19 -0.330564)
(0.0589997 -6.2671e-18 0.0647297)
(0.000921886 -3.0828e-21 -0.315123)
(9.99655 1.22712e-20 0.0514949)
(9.99772 -1.58712e-20 0.0404919)
(9.95832 7.76746e-21 0.0701699)
(9.97876 4.05197e-21 0.0667849)
(9.89716 6.57015e-21 0.0868623)
(9.93328 -4.12241e-21 0.0886099)
(9.81495 5.99729e-21 0.104491)
(9.86345 -2.05098e-21 0.111809)
(9.71153 2.26212e-22 0.123073)
(9.77293 -2.12088e-23 0.136304)
(9.58682 2.05304e-21 0.142649)
(9.66273 2.75135e-23 0.16197)
(9.4406 -1.05423e-21 0.163512)
(9.53244 -3.83622e-20 0.189176)
(9.27231 5.41543e-22 0.185981)
(9.38141 3.79454e-20 0.218358)
(9.08117 3.98034e-20 0.210335)
(9.20902 -6.01771e-22 0.249899)
(8.8662 -4.42048e-20 0.236833)
(9.01451 3.9872e-20 0.28415)
(8.62627 -3.82887e-20 0.265728)
(8.79694 1.57405e-21 0.321463)
(8.36011 4.76033e-20 0.297263)
(8.55517 -4.08245e-20 0.362182)
(8.06633 5.48564e-21 0.331654)
(8.28795 1.17795e-22 0.406636)
(7.74351 -1.22957e-20 0.369066)
(7.99393 0 0.455109)
(7.39023 1.95648e-19 0.409581)
(7.67173 1.77276e-19 0.507806)
(7.00522 1.91844e-19 0.453146)
(7.31998 1.01149e-20 0.564796)
(6.58744 -2.93789e-19 0.499512)
(6.93743 -6.14429e-20 0.625941)
(6.13634 -2.76277e-19 0.548161)
(6.52308 1.53096e-19 0.690798)
(5.65203 -4.83541e-19 0.598214)
(6.07643 -4.48333e-19 0.758518)
(5.13561 7.55182e-19 0.648313)
(5.59763 5.98563e-19 0.827695)
(4.58951 6.15236e-19 0.696509)
(5.08779 -1.04943e-18 0.896201)
(4.01789 -3.2972e-19 0.740151)
(4.54938 1.55651e-18 0.961016)
(3.42712 1.40896e-18 0.775771)
(3.98662 -1.89087e-18 1.01805)
(2.82637 9.79122e-19 0.798951)
(3.40603 -5.67153e-20 1.06193)
(2.22882 -1.53864e-18 0.804056)
(2.81719 2.08503e-18 1.08555)
(1.65628 2.06629e-18 0.783022)
(2.23349 -6.59007e-19 1.07846)
(1.15804 3.32472e-18 0.69192)
(1.67864 4.11649e-18 1.01936)
(0.723741 -4.13081e-18 0.492002)
(1.14585 3.56461e-21 0.827677)
(0.254037 -5.16208e-18 0.0136136)
(0.696414 -1.14769e-17 0.50964)
(0.31597 6.43346e-18 -0.0669216)
(9.98923 -2.38298e-20 0.0589473)
(9.99547 -1.18827e-20 0.0455857)
(9.95417 -7.9514e-21 0.088288)
(9.97398 3.98258e-21 0.0837984)
(9.89668 -1.27179e-20 0.116178)
(9.92952 0 0.117278)
(9.81952 -8.04253e-21 0.145451)
(9.86278 -4.21219e-21 0.151347)
(9.72304 -2.19035e-22 0.176399)
(9.77632 4.27849e-21 0.187088)
(9.60715 -4.09003e-20 0.209167)
(9.67119 3.05492e-20 0.224624)
(9.47167 1.65252e-21 0.244166)
(9.54725 -7.16233e-20 0.2644)
(9.31621 3.62931e-20 0.281869)
(9.40406 -3.67505e-20 0.307)
(9.14015 0 0.322724)
(9.24113 1.50497e-19 0.352977)
(8.9427 8.5147e-20 0.367159)
(9.0579 -1.55545e-19 0.402851)
(8.72288 -1.51528e-21 0.415602)
(8.85363 1.60975e-19 0.457143)
(8.47958 -8.77772e-20 0.468468)
(8.62741 8.77841e-20 0.51637)
(8.21157 -5.36827e-21 0.526138)
(8.37824 -3.27151e-21 0.581033)
(7.91752 1.91904e-19 0.588924)
(8.10498 -1.97196e-20 0.651581)
(7.59606 -1.04319e-20 0.657011)
(7.80646 -1.57013e-20 0.728371)
(7.24585 -2.44123e-19 0.730381)
(7.48147 -5.78972e-19 0.811586)
(6.86566 3.8829e-19 0.808703)
(7.1288 -6.96868e-21 0.901141)
(6.45453 -2.6751e-20 0.891213)
(6.74737 8.96487e-19 0.996533)
(6.012 6.47582e-19 0.976559)
(6.33635 -3.40506e-19 1.09669)
(5.53829 -1.22732e-18 1.0626)
(5.89534 9.62348e-19 1.19977)
(5.03462 -7.45197e-20 1.14618)
(5.42453 -2.14059e-18 1.30288)
(4.50365 -4.85693e-20 1.22288)
(4.92504 1.12595e-19 1.40179)
(3.94997 -3.33303e-18 1.28673)
(4.39926 1.84555e-18 1.49056)
(3.38079 1.07482e-18 1.32966)
(3.85135 -3.7356e-18 1.56106)
(2.80691 2.93105e-18 1.34037)
(3.28754 4.95271e-18 1.602)
(2.24359 1.448e-18 1.30131)
(2.71605 -2.50082e-18 1.5971)
(1.70591 7.45177e-19 1.17442)
(2.14832 5.90004e-20 1.52181)
(1.16841 -7.43347e-18 0.921464)
(1.58196 6.0886e-18 1.33143)
(0.62931 3.20146e-19 0.512028)
(0.997144 -1.4157e-17 1.00749)
(0.553392 5.39141e-19 0.501744)
(9.98523 1.61378e-20 0.0707816)
(9.99429 4.01861e-21 0.0525663)
(9.95019 1.18799e-20 0.111919)
(9.97109 -3.99312e-21 0.100809)
(9.89375 8.44789e-21 0.151524)
(9.92653 -1.63131e-20 0.145427)
(9.81788 8.22263e-21 0.192131)
(9.86103 2.48817e-20 0.190224)
(9.72332 3.53991e-20 0.234561)
(9.7764 0 0.236864)
(9.6101 -1.53646e-21 0.279255)
(9.67356 6.96142e-20 0.285837)
(9.47813 -1.09564e-19 0.32679)
(9.55254 -7.07643e-20 0.337685)
(9.32715 7.99296e-20 0.377806)
(9.41302 8.33334e-21 0.393092)
(9.15677 -9.07768e-21 0.432926)
(9.25468 1.51218e-19 0.452744)
(8.9664 -7.55659e-20 0.492754)
(9.07707 -2.31059e-19 0.517301)
(8.75536 2.49321e-19 0.557893)
(8.87966 7.93924e-20 0.587416)
(8.52284 1.71117e-19 0.628935)
(8.66177 1.66087e-19 0.663746)
(8.26792 -1.78342e-20 0.706437)
(8.42264 -8.27805e-21 0.746927)
(7.98962 -2.27283e-19 0.790883)
(8.16144 1.96296e-21 0.83755)
(7.68689 -5.91639e-19 0.882614)
(7.87729 -1.82725e-19 0.936105)
(7.35865 -3.34421e-19 0.981737)
(7.56925 -3.84197e-19 1.04291)
(7.00385 5.12964e-19 1.08798)
(7.23637 -3.82264e-21 1.15797)
(6.62153 5.66693e-19 1.20054)
(6.87772 4.63441e-19 1.28083)
(6.21093 -8.5941e-21 1.31785)
(6.49239 8.42903e-19 1.41037)
(5.77167 8.67763e-21 1.43736)
(6.07966 -9.77645e-19 1.54457)
(5.30391 -1.92386e-18 1.55512)
(5.63904 -1.70851e-18 1.68015)
(4.80865 2.02676e-18 1.66545)
(5.17042 -3.61342e-19 1.81212)
(4.28806 1.37499e-18 1.76047)
(4.67427 4.21706e-18 1.93336)
(3.74578 2.4699e-19 1.82937)
(4.15189 -1.31888e-19 2.034)
(3.18688 -5.6314e-19 1.85729)
(3.60537 7.50874e-19 2.10058)
(2.61643 -3.86085e-18 1.82369)
(3.03698 -3.19331e-18 2.1152)
(2.03514 5.45154e-18 1.69746)
(2.44914 -5.11757e-20 2.05498)
(1.42914 -8.12958e-19 1.45191)
(1.83971 6.0732e-18 1.88742)
(0.781186 -1.37337e-17 1.07048)
(1.1727 -6.76764e-18 1.59754)
(0.621674 -6.9394e-18 1.1507)
(9.98335 -1.62199e-20 0.0832209)
(9.99376 -1.56899e-20 0.0604365)
(9.94793 -3.23543e-20 0.1346)
(9.96972 -3.20258e-20 0.118001)
(9.89247 6.7816e-22 0.184688)
(9.92529 -1.21742e-22 0.173088)
(9.81806 1.63243e-20 0.235771)
(9.8611 1.65473e-20 0.22836)
(9.72544 3.51468e-20 0.289046)
(9.77849 0 0.285621)
(9.61476 -1.4862e-21 0.345201)
(9.67817 3.46838e-20 0.345686)
(9.48593 4.81839e-20 0.404923)
(9.56021 -1.05632e-19 0.409231)
(9.33875 8.15092e-20 0.468946)
(9.42439 1.53325e-19 0.477026)
(9.1729 -7.57973e-20 0.538)
(9.27042 7.46178e-20 0.549863)
(8.98794 -7.20297e-20 0.612798)
(9.09795 1.12551e-21 0.628513)
(8.78333 -2.72236e-21 0.694049)
(8.90654 -1.5429e-19 0.713739)
(8.55843 -1.55971e-20 0.782455)
(8.69564 -1.04842e-22 0.806301)
(8.31258 1.16558e-20 0.878685)
(8.46464 3.30626e-19 0.906945)
(8.04502 4.41459e-20 0.983334)
(8.2129 -6.56458e-19 1.01637)
(7.75497 2.21597e-20 1.09686)
(7.9397 7.00729e-19 1.13516)
(7.44164 -4.86589e-20 1.21948)
(7.64431 4.97392e-20 1.26375)
(7.10418 -4.74231e-20 1.35103)
(7.32597 -3.26368e-19 1.40225)
(6.74173 7.44478e-19 1.49074)
(6.98384 0 1.55033)
(6.35343 -1.49171e-19 1.63706)
(6.617 8.35313e-19 1.70694)
(5.93849 -2.70442e-18 1.78726)
(6.22448 -2.39357e-20 1.87008)
(5.49622 -1.30264e-19 1.9371)
(5.80526 -2.69225e-18 2.03642)
(5.02614 1.88677e-18 2.08023)
(5.35817 3.7048e-18 2.20077)
(4.52802 2.65579e-18 2.20777)
(4.88197 -1.87336e-18 2.35554)
(4.00195 3.85902e-19 2.30755)
(4.37535 2.38194e-18 2.49021)
(3.4479 -1.9254e-18 2.36341)
(3.8369 -2.20994e-18 2.59065)
(2.86485 6.47359e-19 2.3549)
(3.26453 -4.4807e-18 2.63862)
(2.24907 6.34664e-19 2.25605)
(2.65552 4.81859e-18 2.61218)
(1.59108 0 2.04507)
(2.00901 0 2.48367)
(0.8805 0 1.70243)
(1.28623 0 2.23988)
(0.667603 4.15361e-19 1.83453)
(9.98255 -3.17112e-20 0.0959635)
(9.99357 -2.35095e-20 0.0686861)
(9.94708 6.43437e-22 0.157013)
(9.96932 -8.03926e-21 0.135219)
(9.8928 1.59729e-20 0.217287)
(9.92543 1.61925e-20 0.200164)
(9.82024 0 0.278772)
(9.86282 0 0.265546)
(9.73003 0 0.342801)
(9.7826 0 0.333115)
(9.62236 -7.13308e-20 0.410231)
(9.68527 1.69891e-20 0.403915)
(9.49716 2.93501e-21 0.48185)
(9.57089 -7.03986e-20 0.478766)
(9.35427 1.45397e-19 0.558478)
(9.43932 7.14273e-20 0.558526)
(9.1934 1.50584e-19 0.640945)
(9.29031 8.29811e-20 0.644075)
(9.01419 -8.31613e-20 0.730066)
(9.12356 8.12877e-20 0.736284)
(8.81616 -1.4968e-19 0.826654)
(8.93868 -3.10342e-19 0.836011)
(8.59879 3.50429e-19 0.931509)
(8.73519 1.56082e-19 0.944109)
(8.36149 -3.50247e-19 1.0454)
(8.51255 3.51186e-19 1.06141)
(8.10365 1.75531e-20 1.16902)
(8.27019 -1.01204e-18 1.18871)
(7.8246 7.20085e-19 1.30293)
(8.00746 6.95719e-19 1.32669)
(7.52366 -2.32767e-19 1.44746)
(7.7237 3.11706e-19 1.47587)
(7.20006 -2.74841e-19 1.60255)
(7.41818 -1.00979e-18 1.63651)
(6.85294 1.01368e-19 1.76758)
(7.09003 1.50028e-18 1.80841)
(6.48127 9.4985e-19 1.94111)
(6.73819 -7.67784e-19 1.99071)
(6.08388 -4.41388e-20 2.12053)
(6.36142 8.40728e-19 2.18161)
(5.65933 1.22107e-18 2.30161)
(5.95809 -7.6075e-19 2.378)
(5.20581 -1.21682e-19 2.478)
(5.52613 2.05031e-18 2.57492)
(4.72109 -2.09839e-18 2.64056)
(5.06282 -2.12315e-18 2.76498)
(4.20243 -2.66308e-19 2.77688)
(4.56471 -2.33357e-19 2.93774)
(3.64634 -4.78793e-18 2.87061)
(4.0277 -5.08611e-19 3.07915)
(3.04845 -2.16703e-19 2.90158)
(3.44681 -8.676e-18 3.17093)
(2.40346 4.134e-18 2.84563)
(2.8164 8.62855e-18 3.19107)
(1.70558 0 2.68115)
(2.13735 4.87061e-18 3.11256)
(0.953724 4.19319e-19 2.37911)
(1.37095 -5.36657e-18 2.91881)
(0.703545 3.12953e-20 2.54283)
(9.98236 3.6996e-22 0.108762)
(9.99359 1.57479e-20 0.0770247)
(9.94727 7.84144e-21 0.179055)
(9.96957 -3.16347e-20 0.152253)
(9.8944 0 0.249071)
(9.9266 1.60371e-20 0.226538)
(9.82405 0 0.320576)
(9.86589 -3.25534e-20 0.301607)
(9.73669 1.72164e-20 0.39495)
(9.7884 -1.66963e-20 0.379116)
(9.63253 1.67644e-20 0.473202)
(9.6945 3.37477e-20 0.46025)
(9.51154 -3.02504e-23 0.556234)
(9.58426 -1.71741e-20 0.545968)
(9.37359 9.15602e-21 0.64496)
(9.45755 -2.63538e-20 0.637216)
(9.21843 1.36527e-20 0.7403)
(9.3142 1.44293e-19 0.734959)
(9.04573 -1.50996e-19 0.843166)
(9.15392 1.40575e-21 0.840155)
(8.85507 1.4721e-21 0.954458)
(8.97638 -4.54375e-19 0.953753)
(8.64597 1.59352e-19 1.07507)
(8.78114 3.04444e-19 1.07669)
(8.41788 -3.28134e-19 1.20585)
(8.5677 1.42613e-22 1.2099)
(8.17023 -3.12055e-19 1.34758)
(8.33551 -7.53332e-21 1.35426)
(7.90237 2.8234e-19 1.50094)
(8.08393 -6.49275e-19 1.51056)
(7.61357 -4.82014e-19 1.66636)
(7.81225 6.24263e-19 1.67945)
(7.30302 7.96886e-19 1.84395)
(7.51967 -7.75871e-19 1.86132)
(6.96969 6.0331e-19 2.03328)
(7.20517 1.54602e-18 2.05619)
(6.61232 -8.57517e-19 2.23317)
(6.86748 -8.68322e-19 2.26347)
(6.22922 1.04615e-19 2.44131)
(6.50492 -9.56983e-20 2.48171)
(5.81819 1.0216e-19 2.65387)
(6.11526 3.47479e-21 2.70827)
(5.37626 0 2.86489)
(5.6955 1.65259e-18 2.93877)
(4.89954 -2.35996e-19 3.06569)
(5.24161 1.22715e-19 3.16648)
(4.38306 -4.78736e-19 3.24416)
(4.74837 -1.7747e-18 3.3816)
(3.82093 -4.48255e-18 3.38419)
(4.20945 1.02777e-19 3.57054)
(3.20664 3.45129e-19 3.4654)
(3.61767 -4.19684e-18 3.71507)
(2.53424 9.3255e-18 3.463)
(2.96521 4.453e-18 3.79232)
(1.8009 -6.18558e-19 3.35232)
(2.25426 4.8597e-18 3.7731)
(1.01136 -5.69566e-18 3.09028)
(1.445 -5.36116e-18 3.63465)
(0.733712 -5.80566e-18 3.28459)
(9.98255 -1.68761e-20 0.121409)
(9.99374 3.13492e-20 0.085272)
(9.94823 -2.27907e-20 0.20056)
(9.97026 -8.66914e-23 0.168918)
(9.89704 -1.71738e-20 0.279859)
(9.92858 -6.38097e-20 0.252077)
(9.82921 -4.90384e-20 0.360959)
(9.87007 3.22412e-20 0.336377)
(9.74512 5.08109e-22 0.445263)
(9.79565 -3.31796e-20 0.423402)
(9.64496 -8.65698e-22 0.533895)
(9.70562 1.00619e-19 0.514426)
(9.52876 -4.36204e-20 0.627863)
(9.60001 -5.10489e-20 0.610523)
(9.3964 1.11022e-19 0.72817)
(9.47876 -8.92228e-21 0.712728)
(9.24768 1.30194e-19 0.835817)
(9.34172 2.95299e-19 0.822087)
(9.08229 -3.07889e-19 0.951803)
(9.18868 -1.38378e-19 0.939639)
(8.89988 -1.41638e-19 1.07712)
(9.01931 -3.0083e-19 1.06642)
(8.69998 1.4133e-19 1.21274)
(8.83323 1.53341e-19 1.20346)
(8.48208 3.20703e-19 1.35962)
(8.62997 -9.90779e-21 1.35179)
(8.2456 -3.52845e-19 1.51865)
(8.40898 3.2638e-19 1.51238)
(7.98983 -2.91481e-19 1.6906)
(8.16961 -6.66759e-19 1.68615)
(7.71399 3.12994e-19 1.87609)
(7.9111 3.83256e-19 1.8739)
(7.41708 1.97609e-21 2.07542)
(7.6325 -2.30048e-20 2.07622)
(7.09787 4.45568e-20 2.28845)
(7.3326 4.46421e-20 2.29341)
(6.75469 -9.6871e-20 2.51436)
(7.00983 0 2.52525)
(6.38532 -1.95734e-19 2.75134)
(6.66206 4.30043e-20 2.77081)
(5.98677 1.57331e-18 2.99622)
(6.28641 -9.99915e-20 3.0281)
(5.55495 1.75875e-18 3.24386)
(5.87895 3.22467e-18 3.29362)
(5.08447 -1.43703e-18 3.48642)
(5.43441 -1.63419e-18 3.5617)
(4.56851 -1.17326e-18 3.71261)
(4.94594 -1.54219e-18 3.82366)
(3.999 3.44509e-19 3.90671)
(4.40507 -1.53119e-18 4.06678)
(3.36752 0 4.04786)
(3.80234 1.81064e-18 4.27307)
(2.66709 -8.80352e-21 4.10913)
(3.12736 -1.93191e-18 4.41839)
(1.89605 -8.59137e-21 4.06092)
(2.38237 4.13412e-18 4.46984)
(1.06151 -5.47651e-18 3.84272)
(1.52318 -1.2553e-19 4.39719)
(0.762627 -8.1288e-18 4.08004)
(9.983 4.77258e-20 0.133748)
(9.99397 -2.32395e-20 0.0933069)
(9.94977 -4.19739e-20 0.221376)
(9.97128 8.15478e-21 0.185056)
(9.90054 -1.30995e-20 0.309503)
(9.93118 -4.80312e-20 0.276641)
(9.83554 4.72261e-20 0.399745)
(9.87518 9.70638e-20 0.369697)
(9.7551 6.87159e-20 0.493522)
(9.80417 -8.16845e-20 0.465771)
(9.65941 4.84313e-20 0.592045)
(9.71839 6.72432e-20 0.566194)
(9.54852 -1.57974e-20 0.696418)
(9.6179 -1.18504e-19 0.672135)
(9.42236 1.79332e-19 0.807724)
(9.50264 8.58738e-20 0.784716)
(9.28076 2.10914e-20 0.927043)
(9.37255 1.25092e-19 0.905055)
(9.12346 -1.33409e-19 1.05546)
(9.22743 -1.44103e-19 1.03427)
(8.95015 0 1.19404)
(9.06702 0 1.17348)
(8.76041 0 1.34387)
(8.89099 2.93918e-19 1.32381)
(8.55375 0 1.506)
(8.69889 -2.99641e-19 1.48638)
(8.32956 0 1.68145)
(8.4902 -2.41111e-21 1.66229)
(8.08711 2.11684e-20 1.87115)
(8.26426 0 1.8526)
(7.82551 4.21515e-20 2.07589)
(8.02025 2.09126e-20 2.05831)
(7.54361 2.05032e-20 2.29625)
(7.75712 4.51481e-22 2.28025)
(7.23988 -4.66012e-22 2.53246)
(7.47347 -4.30103e-20 2.51906)
(6.9123 1.40433e-19 2.7842)
(7.16743 -2.14796e-20 2.775)
(6.55809 1.37186e-19 3.05035)
(6.83647 8.27449e-19 3.0478)
(6.17344 1.58939e-18 3.32864)
(6.47709 -7.21367e-19 3.33636)
(5.75321 -2.23043e-19 3.61506)
(6.0845 5.81835e-20 3.63834)
(5.29058 -1.73845e-18 3.9031)
(5.65225 1.33677e-18 3.94953)
(4.77682 -1.90046e-18 4.18273)
(5.17181 -1.56157e-18 4.26286)
(4.20154 -2.89831e-20 4.43904)
(4.63244 -2.29488e-19 4.56715)
(3.55367 -1.63142e-19 4.65079)
(4.02176 8.09751e-20 4.84519)
(2.8238 2.28318e-18 4.78832)
(3.32545 -1.93342e-18 5.07194)
(2.00891 3.95791e-18 4.81594)
(2.54359 4.02981e-18 5.21016)
(1.11617 -2.83973e-18 4.65347)
(1.62316 -2.18834e-18 5.22081)
(0.798425 -2.6494e-19 4.95335)
(9.98364 -6.24023e-20 0.145658)
(9.99428 5.40621e-20 0.101042)
(9.95175 1.33361e-21 0.241367)
(9.97255 7.7601e-21 0.200537)
(9.90475 6.40922e-20 0.337857)
(9.9343 3.18224e-20 0.3001)
(9.84288 -3.42441e-20 0.436757)
(9.88108 3.22659e-20 0.401418)
(9.76644 -8.11829e-20 0.539508)
(9.81378 -9.77209e-20 0.506035)
(9.67564 -1.02152e-19 0.647387)
(9.73263 1.58505e-20 0.615325)
(9.57055 -1.41544e-20 0.761582)
(9.63767 4.90219e-20 0.730535)
(9.45114 3.21383e-20 0.88325)
(9.52891 7.75271e-22 0.852861)
(9.3173 -4.35945e-20 1.01355)
(9.40632 -1.76755e-20 0.983491)
(9.16882 -8.82758e-21 1.15363)
(9.26977 -8.94308e-21 1.12362)
(9.00542 2.97696e-19 1.30467)
(9.11906 -1.61614e-19 1.27443)
(8.82675 -1.32228e-20 1.46782)
(8.95389 4.43793e-19 1.43716)
(8.63235 -2.98361e-19 1.64427)
(8.7739 -2.92802e-19 1.61301)
(8.42162 -2.38147e-21 1.83516)
(8.57858 -3.54503e-23 1.80322)
(8.19382 0 2.04161)
(8.36731 0 2.00901)
(7.94799 -2.10487e-20 2.26466)
(8.13925 0 2.2316)
(7.68284 -6.36029e-20 2.5052)
(7.89329 -2.07998e-20 2.47212)
(7.39666 -6.37815e-20 2.76392)
(7.62792 -4.25564e-20 2.73161)
(7.08707 6.75634e-19 3.04112)
(7.34109 -6.68838e-19 3.01091)
(6.75083 -4.89265e-20 3.33656)
(7.02995 1.34294e-18 3.31052)
(6.38344 -2.24501e-18 3.64911)
(6.69053 -1.41502e-18 3.63045)
(5.97879 1.63295e-18 3.97625)
(6.31736 -8.02246e-19 3.96982)
(5.52864 1.48278e-18 4.31329)
(5.90292 1.65686e-18 4.3263)
(5.02226 1.25289e-19 4.65215)
(5.43711 1.37254e-18 4.69514)
(4.44638 -1.1765e-19 4.97957)
(4.90664 1.66098e-18 5.06765)
(3.78602 -1.71157e-18 5.27476)
(4.29535 -3.13664e-18 5.42874)
(3.02684 -1.17929e-19 5.50569)
(3.58281 1.72053e-18 5.75378)
(2.16076 -2.20765e-18 5.6297)
(2.76332 -1.71258e-18 6.00178)
(1.19222 4.11565e-19 5.54428)
(1.76862 -9.09346e-19 6.12299)
(0.854155 1.54036e-18 5.93162)
(9.98441 1.23621e-19 0.157043)
(9.99463 -3.82296e-20 0.108413)
(9.9541 3.85772e-20 0.260412)
(9.97402 3.91104e-20 0.215256)
(9.90955 0 0.364787)
(9.93784 0 0.322331)
(9.85109 -3.29511e-20 0.471834)
(9.88764 0 0.431401)
(9.77898 8.23339e-22 0.583021)
(9.82434 -3.25177e-20 0.544025)
(9.69344 1.67474e-19 0.699683)
(9.74813 -1.96271e-22 0.661613)
(9.59459 6.33299e-20 0.823073)
(9.65909 2.00008e-19 0.785475)
(9.48244 -4.92869e-20 0.95442)
(9.55727 -1.17911e-19 0.916873)
(9.35692 1.70935e-20 1.09495)
(9.4427 3.24813e-22 1.05706)
(9.21791 -1.63695e-19 1.24588)
(9.3153 -1.72606e-20 1.20728)
(9.06518 -7.86137e-21 1.40847)
(9.17494 -1.43983e-19 1.36882)
(8.89843 1.54945e-19 1.58398)
(9.0214 1.49842e-19 1.54296)
(8.71726 9.23842e-21 1.77369)
(8.85438 -2.21547e-21 1.73103)
(8.52114 2.34722e-21 1.97892)
(8.67345 -6.82546e-21 1.9344)
(8.30933 0 2.20097)
(8.47805 0 2.15446)
(8.08088 0 2.44116)
(8.26738 -3.06899e-19 2.39265)
(7.83446 0 2.70075)
(8.04037 3.14129e-19 2.65043)
(7.56824 -6.55152e-19 2.98095)
(7.79551 6.32843e-19 2.92929)
(7.27967 2.16186e-20 3.2828)
(7.5307 -1.29523e-18 3.2307)
(6.96522 -5.47125e-20 3.60705)
(7.24299 3.36299e-21 3.55606)
(6.61993 3.54106e-20 3.95399)
(6.92821 -3.76927e-20 3.90662)
(6.23693 -7.52122e-19 4.32297)
(6.58052 6.82545e-19 4.28324)
(5.80676 1.54433e-18 4.71172)
(6.19172 -1.44156e-18 4.68596)
(5.31668 2.91151e-18 5.11509)
(5.7504 3.6236e-18 5.11319)
(4.75004 -1.41316e-18 5.52295)
(5.24084 -6.87229e-19 5.56014)
(4.08629 3.54712e-19 5.91692)
(4.64238 -8.71742e-19 6.01608)
(3.30266 8.20943e-20 6.26449)
(3.92604 8.99234e-19 6.45999)
(2.37975 -4.00712e-19 6.51615)
(3.07469 -1.59774e-18 6.85025)
(1.31215 2.3619e-19 6.54246)
(1.99395 1.05454e-18 7.12574)
(0.951065 -1.02636e-18 7.05495)
(9.98529 -1.21726e-19 0.167825)
(9.99502 -6.18385e-20 0.115369)
(9.95673 0 0.278407)
(9.97565 -4.62483e-20 0.229125)
(9.91486 0 0.390168)
(9.94171 -7.80057e-20 0.343229)
(9.86003 0 0.504827)
(9.89477 3.15042e-20 0.45952)
(9.79254 -3.31082e-20 0.623884)
(9.8357 0 0.579589)
(9.7126 3.4964e-20 0.748717)
(9.76473 -4.49613e-22 0.704876)
(9.62038 1.46173e-20 0.88064)
(9.68195 6.63431e-20 0.83674)
(9.51593 -6.67693e-20 1.02094)
(9.58745 -9.99252e-20 0.976497)
(9.39926 -3.42599e-20 1.17089)
(9.48133 -1.2049e-22 1.12545)
(9.27029 8.47217e-22 1.3318)
(9.36359 -1.71456e-20 1.28491)
(9.12889 1.74415e-20 1.50497)
(9.23416 1.76665e-20 1.45621)
(8.97483 -9.24996e-21 1.69177)
(9.09291 0 1.64072)
(8.80781 -1.83402e-20 1.8936)
(8.93964 -2.6873e-20 1.83986)
(8.62735 -9.09067e-21 2.1119)
(8.77403 2.90091e-19 2.05512)
(8.43283 -3.10692e-19 2.34821)
(8.5956 -2.92141e-19 2.28805)
(8.22336 1.46714e-20 2.6041)
(8.40371 9.50156e-21 2.54033)
(7.99768 9.50976e-19 2.88125)
(8.19738 6.31878e-19 2.81374)
(7.754 -2.96509e-20 3.18141)
(7.97526 2.63227e-20 3.11021)
(7.48983 -1.29886e-18 3.5064)
(7.73539 -2.14533e-20 3.43186)
(7.2016 1.98899e-20 3.85811)
(7.47499 -1.27093e-18 3.78103)
(6.88425 6.17648e-19 4.23839)
(7.19007 2.90802e-20 4.16029)
(6.53062 -3.03464e-20 4.64883)
(6.87492 1.23152e-18 4.57243)
(6.13055 6.94012e-19 5.09025)
(6.52132 -7.12454e-19 5.02027)
(5.66971 -2.53776e-20 5.56169)
(6.11739 6.86456e-19 5.50622)
(5.12807 -1.47254e-19 6.05835)
(5.64582 -5.5957e-20 6.03115)
(4.47833 -3.07151e-19 6.56788)
(5.08192 4.85689e-20 6.59203)
(3.68502 -8.12517e-19 7.06242)
(4.38675 -9.03023e-19 7.17729)
(2.70725 -1.05203e-19 7.48979)
(3.52484 -8.02748e-20 7.75366)
(1.5115 -2.25171e-19 7.68908)
(2.35648 -1.038e-19 8.25625)
(1.12974 -1.28315e-19 8.39622)
(9.98625 1.38473e-20 0.177942)
(9.99544 5.38757e-20 0.121869)
(9.95959 -1.24688e-19 0.295263)
(9.9774 2.30854e-20 0.242072)
(9.92059 -4.50309e-20 0.413893)
(9.94587 -4.69182e-20 0.362699)
(9.86961 3.10852e-20 0.535609)
(9.90237 6.28865e-20 0.485667)
(9.80697 3.26552e-20 0.661941)
(9.84775 -3.16084e-20 0.612596)
(9.73293 3.18067e-20 0.794304)
(9.78225 1.31339e-22 0.744955)
(9.64766 -5.03665e-20 0.934059)
(9.70601 0 0.884141)
(9.5513 -3.19854e-20 1.08254)
(9.61917 -4.95235e-20 1.03151)
(9.44391 1.67786e-20 1.24107)
(9.52187 1.6877e-20 1.18842)
(9.32549 1.15821e-22 1.41101)
(9.41421 -1.65144e-20 1.3562)
(9.196 0 1.59374)
(9.2962 0 1.53626)
(9.05531 -1.79599e-20 1.79068)
(9.16781 -1.71685e-20 1.73002)
(8.90322 2.85521e-19 2.00335)
(9.02896 -1.99874e-22 1.93898)
(8.73939 -5.77766e-23 2.23333)
(8.87945 2.81812e-19 2.16473)
(8.56334 3.17603e-20 2.48234)
(8.71899 -2.92234e-19 2.40897)
(8.37434 6.34314e-19 2.75222)
(8.54709 2.68352e-20 2.67359)
(8.17132 -3.00118e-19 3.04502)
(8.36302 5.90124e-19 2.96064)
(7.95274 3.40652e-20 3.36303)
(8.1657 -6.43505e-19 3.27249)
(7.71636 -7.57527e-21 3.70886)
(7.95355 6.63345e-19 3.61183)
(7.45897 -1.2473e-18 4.08552)
(7.72425 -6.56747e-19 3.98188)
(7.17591 6.5664e-19 4.49651)
(7.47443 -6.27557e-19 4.38649)
(6.86042 5.27464e-19 4.94585)
(7.19918 1.30068e-18 4.83036)
(6.50261 -7.0445e-19 5.438)
(6.89124 -4.28491e-20 5.31924)
(6.0878 6.47675e-19 5.9774)
(6.53977 -5.94446e-19 5.86008)
(5.59397 1.40861e-19 6.56732)
(6.12805 6.40324e-19 6.46097)
(4.98774 -5.59708e-19 7.20704)
(5.63033 -5.60358e-19 7.13037)
(4.21832 -1.59588e-19 7.88396)
(5.00067 -5.21926e-21 7.87501)
(3.20996 -7.91912e-20 8.55998)
(4.1829 -7.42485e-20 8.6891)
(1.86124 -8.36767e-21 9.05364)
(2.96515 0 9.53777)
(1.48241 -5.10186e-20 10.0983)
(9.98728 6.27096e-20 0.187343)
(9.99588 -3.79468e-23 0.127882)
(9.96264 9.99104e-20 0.310904)
(9.97926 1.38048e-19 0.254039)
(9.92665 6.24778e-20 0.435869)
(9.95024 1.56896e-20 0.380667)
(9.8797 -1.06716e-21 0.564068)
(9.91034 6.24139e-20 0.509749)
(9.82213 -6.37163e-20 0.69706)
(9.86035 -9.45403e-20 0.642936)
(9.75422 -3.16801e-20 0.836291)
(9.80053 6.28877e-20 0.781718)
(9.6762 2.01325e-22 0.983155)
(9.73106 -3.231e-20 0.927522)
(9.58824 1.96189e-22 1.13902)
(9.65214 1.94737e-19 1.08174)
(9.49049 -1.68462e-20 1.30526)
(9.56397 6.60607e-20 1.24574)
(9.38303 -1.64234e-20 1.48325)
(9.46673 -1.15619e-19 1.42091)
(9.26592 -1.73859e-20 1.67444)
(9.36053 0 1.60867)
(9.13915 8.03331e-22 1.88031)
(9.24545 -1.6e-22 1.8105)
(9.00266 -4.62543e-22 2.10245)
(9.12155 2.57956e-19 2.02795)
(8.85627 -1.73573e-20 2.34257)
(8.9888 -2.75843e-19 2.26269)
(8.69971 -2.93342e-19 2.60252)
(8.84708 3.14015e-19 2.51654)
(8.53247 -1.0731e-20 2.88439)
(8.69618 -5.87803e-19 2.79152)
(8.35382 2.3233e-19 3.19054)
(8.53568 -1.06033e-20 3.08994)
(8.1626 1.069e-21 3.52373)
(8.36491 5.67128e-19 3.41446)
(7.95714 -9.99208e-22 3.88724)
(8.18285 -6.0384e-19 3.76828)
(7.73494 -3.63768e-20 4.28509)
(7.98794 3.19204e-19 4.15528)
(7.49234 3.82128e-20 4.72228)
(7.77789 -7.02249e-20 4.58038)
(7.22389 7.15257e-19 5.20516)
(7.54929 3.77838e-20 5.04988)
(6.92138 6.10702e-20 5.7419)
(7.29704 4.60695e-19 5.57209)
(6.5721 -5.87494e-19 6.34298)
(7.01334 -6.58916e-19 6.15824)
(6.15563 -7.54364e-20 7.02189)
(6.68576 2.71829e-19 6.82383)
(5.63774 1.3479e-21 7.79574)
(6.29422 -7.45342e-20 7.59101)
(4.95768 7.91553e-20 8.68408)
(5.79852 7.39876e-20 8.49311)
(3.99965 6.00035e-21 9.7068)
(5.14279 6.85004e-20 9.58048)
(2.52882 -4.62512e-20 10.7621)
(4.05231 0 10.9406)
(2.25414 1.40805e-19 12.4649)
(9.98836 7.71176e-20 0.195989)
(9.99635 7.74702e-21 0.133383)
(9.96584 5.21657e-20 0.325268)
(9.98118 8.41224e-20 0.264978)
(9.93299 1.62521e-20 0.456012)
(9.95479 -1.15567e-21 0.397067)
(9.89022 -3.3149e-20 0.590097)
(9.91861 -2.6902e-20 0.531689)
(9.83789 3.41422e-20 0.729104)
(9.8734 -3.45656e-20 0.670517)
(9.7763 6.1019e-20 0.874503)
(9.81944 7.47444e-21 0.81506)
(9.70574 1.65173e-19 1.02771)
(9.75694 -2.81306e-21 0.96676)
(9.62643 2.58969e-19 1.19012)
(9.68618 1.59019e-20 1.12703)
(9.5386 -3.50212e-20 1.36313)
(9.60743 1.59142e-19 1.29725)
(9.44243 -9.77434e-20 1.54815)
(9.52093 -1.00862e-19 1.47883)
(9.33806 1.72258e-20 1.74664)
(9.42691 0 1.67321)
(9.22565 2.60225e-19 1.96013)
(9.32559 1.73343e-20 1.88189)
(9.10526 -2.39601e-20 2.19027)
(9.21715 2.77017e-19 2.10644)
(8.97695 6.27294e-20 2.43884)
(9.10176 -2.63188e-19 2.34859)
(8.84064 8.75793e-21 2.70781)
(8.97955 5.7858e-19 2.61022)
(8.69619 -5.80911e-19 2.99941)
(8.85057 -5.63175e-19 2.89344)
(8.54324 3.30993e-19 3.31624)
(8.71482 -2.88489e-19 3.20069)
(8.38122 -5.14878e-20 3.66138)
(8.57213 3.8605e-19 3.53483)
(8.20921 -2.72988e-19 4.0386)
(8.42219 -5.8721e-19 3.89933)
(8.02577 2.8086e-19 4.45265)
(8.26446 5.9055e-19 4.29852)
(7.82881 -6.94184e-20 4.90964)
(8.09806 -2.63866e-19 4.73792)
(7.61511 -2.12086e-19 5.41769)
(7.9217 5.11049e-19 5.22478)
(7.37981 -2.72419e-19 5.98786)
(7.73348 -5.92231e-19 5.76899)
(7.1152 2.11292e-19 6.63582)
(7.53069 -2.76798e-21 6.38441)
(6.80849 2.68508e-19 7.38462)
(7.30929 2.77031e-19 7.09149)
(6.43667 0 8.27074)
(7.06421 5.4766e-20 7.92227)
(5.95379 6.2695e-20 9.35798)
(6.78526 4.97623e-20 8.93268)
(5.24945 6.10487e-20 10.7914)
(6.49347 -2.6715e-20 10.2368)
(3.96899 1.84528e-19 13.0552)
(6.23388 3.92987e-20 12.1647)
(5.3424 1.5758e-19 16.2208)
(0.16027 -2.3769e-21 -0.0799436)
(0.0834052 -1.54017e-20 -0.139303)
(0.343191 2.92456e-20 -0.0908612)
(0.261102 7.64578e-20 -0.163902)
(0.519001 0 -0.0825428)
(0.43378 -5.81217e-20 -0.152776)
(0.67136 0 -0.0679781)
(0.59499 0 -0.129613)
(0.797084 2.46794e-21 -0.0528209)
(0.734148 0 -0.105112)
(0.897044 2.5175e-21 -0.0386964)
(0.848743 1.89452e-20 -0.0822243)
(0.972732 2.03781e-21 -0.0259183)
(0.939952 -1.85251e-20 -0.0612475)
(1.02585 5.68711e-21 -0.0145816)
(1.00966 -7.91259e-21 -0.0422532)
(1.05843 1.00771e-21 -0.00474189)
(1.05984 4.15893e-21 -0.0254566)
(1.07275 -2.74137e-21 0.00349562)
(1.09255 3.46681e-21 -0.0109641)
(1.07183 0 0.00957902)
(1.10989 0 0.000732869)
(1.05775 0 0.0134933)
(1.11383 0 0.0104461)
(1.03462 0 0.0158217)
(1.10634 -2.57765e-21 0.0168059)
(1.00564 2.85318e-22 0.0168813)
(1.09097 1.91593e-21 0.0206151)
(0.973438 2.91475e-22 0.0169242)
(1.07087 5.69803e-22 0.022444)
(0.940394 2.45178e-22 0.0159073)
(1.04821 1.02106e-21 0.0225522)
(0.909488 2.50506e-22 0.0137426)
(1.02526 -9.99291e-22 0.0206564)
(0.883553 2.09221e-22 0.0107401)
(1.00481 1.32687e-23 0.0169756)
(0.863848 2.13774e-22 0.00754585)
(0.989006 8.33534e-22 0.0126327)
(0.849769 0 0.00468498)
(0.97801 -4.0666e-22 0.00884299)
(0.840037 0 0.00221163)
(0.970319 -3.61217e-22 0.00598937)
(0.834503 1.06881e-22 -0.000267239)
(0.964584 0 0.00334215)
(0.834841 7.58993e-23 -0.00301591)
(0.961014 -1.01136e-22 -0.000182741)
(0.84335 -6.08785e-23 -0.0058197)
(0.96104 1.00617e-22 -0.00488652)
(0.860903 -4.92083e-23 -0.0082982)
(0.965613 -2.65968e-23 -0.00988764)
(0.88673 -2.26239e-23 -0.0102817)
(0.975338 2.48724e-23 -0.0142564)
(0.919497 2.92279e-24 -0.0119459)
(0.990302 0 -0.0177222)
(0.958319 8.05289e-25 -0.0133977)
(1.01038 -5.47518e-23 -0.0205731)
(1.00153 -2.27809e-24 -0.0139194)
(1.03538 -2.10968e-24 -0.0224419)
(1.07251 -2.64783e-23 -0.0209874)
(0.174241 6.18318e-20 -0.234065)
(0.0736397 -9.76985e-20 -0.296223)
(0.352301 -9.36248e-21 -0.241021)
(0.249272 5.65653e-20 -0.325198)
(0.519361 -5.89224e-20 -0.215349)
(0.405075 3.62752e-20 -0.298476)
(0.66576 0 -0.180221)
(0.550178 0 -0.254302)
(0.790096 1.63642e-20 -0.145355)
(0.675199 1.04643e-20 -0.209153)
(0.893503 -1.85289e-21 -0.113198)
(0.77982 -2.10453e-20 -0.167372)
(0.977361 -2.85381e-20 -0.084049)
(0.86573 3.54186e-20 -0.129196)
(1.04325 -9.51184e-21 -0.0580531)
(0.934572 -1.50682e-20 -0.094764)
(1.09315 6.63205e-21 -0.0352753)
(0.987823 -1.49109e-20 -0.0645339)
(1.12875 6.25614e-21 -0.0155497)
(1.02739 6.19241e-21 -0.0383487)