/*--------------------------------*- C++ -*----------------------------------*\
| =========                 |                                                 |
| \\      /  F ield         | OpenFOAM: The Open Source CFD Toolbox           |
|  \\    /   O peration     | Version:  2006                                  |
|   \\  /    A nd           | Website:  www.openfoam.com                      |
|    \\/     M anipulation  |                                                 |
\*---------------------------------------------------------------------------*/
FoamFile
{
    version     2.0;
    format      ascii;
    class       volVectorField;
    location    "5.7";
    object      U;
}
// * * * * * * * * * * * * * * * * * * * * * * * * * * * * * * * * * * * * * //

dimensions      [0 1 -1 0 0 0 0];


internalField   nonuniform List<vector> 
2790
(
(9.94399 0.0205231 0)
(9.87572 0.0295875 0)
(9.77521 0.0359893 0)
(9.64944 0.0425559 0)
(9.50409 0.0493852 0)
(9.34007 0.0564281 0)
(9.15655 0.0638157 0)
(8.95263 0.0717115 0)
(8.72748 0.0802552 0)
(8.48009 0.0895737 0)
(8.20928 0.099794 0)
(7.91366 0.111046 0)
(7.5917 0.123462 0)
(7.24179 0.137167 0)
(6.86234 0.152275 0)
(6.4518 0.168874 0)
(6.00888 0.187002 0)
(5.53268 0.206624 0)
(5.02296 0.227596 0)
(4.48044 0.249617 0)
(3.90715 0.272182 0)
(3.30682 0.294531 0)
(2.68527 0.315625 0)
(2.05061 0.334293 0)
(1.41178 0.35061 0)
(0.798025 0.372888 0)
(0.110691 0.325053 0)
(-0.469562 -0.114864 0)
(-0.453779 -0.297149 0)
(-0.231163 -0.423856 0)
(9.9985 0.0407028 0)
(9.98145 0.0623824 0)
(9.93575 0.0791395 0)
(9.86417 0.096624 0)
(9.77098 0.115123 0)
(9.65716 0.134487 0)
(9.52206 0.154974 0)
(9.36486 0.176942 0)
(9.18473 0.200707 0)
(8.98068 0.22655 0)
(8.75154 0.254745 0)
(8.4959 0.285562 0)
(8.21222 0.319252 0)
(7.89884 0.356027 0)
(7.55405 0.396025 0)
(7.17621 0.43927 0)
(6.76379 0.485601 0)
(6.31567 0.534596 0)
(5.83126 0.585472 0)
(5.31088 0.636965 0)
(4.75615 0.687214 0)
(4.17041 0.733656 0)
(3.55929 0.772962 0)
(2.93155 0.8011 0)
(2.29995 0.813755 0)
(1.69295 0.807259 0)
(1.10715 0.747254 0)
(0.658894 0.547931 0)
(0.186443 0.224613 0)
(-0.0081986 -0.453731 0)
(9.99559 0.0432066 0)
(9.97556 0.075271 0)
(9.9318 0.103345 0)
(9.8649 0.13237 0)
(9.77778 0.163058 0)
(9.67155 0.195397 0)
(9.54589 0.229741 0)
(9.40014 0.266601 0)
(9.23366 0.306469 0)
(9.04565 0.349806 0)
(8.8351 0.397072 0)
(8.60083 0.448723 0)
(8.34146 0.505194 0)
(8.05551 0.566867 0)
(7.74139 0.634016 0)
(7.39746 0.706738 0)
(7.02212 0.784845 0)
(6.61396 0.867733 0)
(6.17195 0.954205 0)
(5.69564 1.04227 0)
(5.18563 1.12889 0)
(4.64396 1.2098 0)
(4.07479 1.27917 0)
(3.48537 1.32934 0)
(2.88685 1.3501 0)
(2.29947 1.32643 0)
(1.73185 1.22078 0)
(1.21626 0.973011 0)
(0.701145 0.570152 0)
(0.35804 -0.156556 0)
(9.99403 0.0494987 0)
(9.97181 0.0932053 0)
(9.92788 0.133571 0)
(9.86225 0.174207 0)
(9.77694 0.216431 0)
(9.67299 0.260659 0)
(9.55032 0.307427 0)
(9.4085 0.357413 0)
(9.24703 0.411289 0)
(9.06534 0.469704 0)
(8.8627 0.533301 0)
(8.63821 0.602724 0)
(8.39086 0.678594 0)
(8.11953 0.761477 0)
(7.82301 0.851825 0)
(7.50002 0.949881 0)
(7.14926 1.05556 0)
(6.76945 1.16825 0)
(6.3595 1.28661 0)
(5.9186 1.40828 0)
(5.44653 1.52948 0)
(4.944 1.64469 0)
(4.41317 1.74615 0)
(3.85827 1.82323 0)
(3.28582 1.86137 0)
(2.7064 1.84033 0)
(2.12565 1.72601 0)
(1.55426 1.47787 0)
(0.957949 1.0837 0)
(0.509425 0.50233 0)
(9.99331 0.057213 0)
(9.96994 0.110958 0)
(9.92593 0.162102 0)
(9.86146 0.213345 0)
(9.77799 0.266354 0)
(9.67635 0.321911 0)
(9.55655 0.380699 0)
(9.41822 0.443485 0)
(9.26098 0.511053 0)
(9.08434 0.584168 0)
(8.88771 0.663586 0)
(8.6704 0.750063 0)
(8.4316 0.844335 0)
(8.17047 0.947086 0)
(7.88609 1.05888 0)
(7.57749 1.18008 0)
(7.24367 1.31069 0)
(6.88362 1.45019 0)
(6.49629 1.59723 0)
(6.08074 1.74933 0)
(5.63616 1.90242 0)
(5.16212 2.05033 0)
(4.65877 2.18418 0)
(4.12721 2.29175 0)
(3.5694 2.35657 0)
(2.98889 2.35733 0)
(2.38683 2.26496 0)
(1.76639 2.04765 0)
(1.08999 1.69141 0)
(0.536651 1.15415 0)
(9.99302 0.0655378 0)
(9.96923 0.1287 0)
(9.92556 0.190111 0)
(9.86253 0.251841 0)
(9.78129 0.315575 0)
(9.68245 0.382315 0)
(9.56602 0.452871 0)
(9.43172 0.528098 0)
(9.27921 0.608877 0)
(9.10807 0.696081 0)
(8.91779 0.790577 0)
(8.70775 0.893223 0)
(8.47729 1.00486 0)
(8.22569 1.12626 0)
(7.95216 1.25809 0)
(7.6559 1.40082 0)
(7.33604 1.55455 0)
(6.99165 1.71887 0)
(6.62169 1.89256 0)
(6.22501 2.07323 0)
(5.80028 2.25686 0)
(5.34604 2.43721 0)
(4.8607 2.6052 0)
(4.34269 2.74823 0)
(3.79039 2.84955 0)
(3.20257 2.8882 0)
(2.57656 2.83823 0)
(1.91346 2.67162 0)
(1.17274 2.374 0)
(0.549965 1.8944 0)
(9.99297 0.0740739 0)
(9.96927 0.146312 0)
(9.92637 0.217481 0)
(9.86509 0.289289 0)
(9.78643 0.363351 0)
(9.69085 0.440823 0)
(9.57835 0.522656 0)
(9.44872 0.609806 0)
(9.30166 0.703251 0)
(9.13679 0.803961 0)
(8.95366 0.912897 0)
(8.75171 1.03101 0)
(8.53035 1.15922 0)
(8.28889 1.2984 0)
(8.0266 1.4493 0)
(7.7427 1.61248 0)
(7.43631 1.78819 0)
(7.10641 1.97617 0)
(6.75181 2.17541 0)
(6.37101 2.38383 0)
(5.9621 2.59775 0)
(5.52264 2.81139 0)
(5.04952 3.01616 0)
(4.539 3.19997 0)
(3.98665 3.34669 0)
(3.38789 3.43597 0)
(2.73723 3.44331 0)
(2.03623 3.34149 0)
(1.24174 3.11357 0)
(0.563509 2.69314 0)
(9.99306 0.0825869 0)
(9.96981 0.163604 0)
(9.92807 0.244047 0)
(9.86885 0.325476 0)
(9.79313 0.409441 0)
(9.70126 0.497201 0)
(9.59324 0.589833 0)
(9.46889 0.68839 0)
(9.32797 0.793934 0)
(9.17015 0.907525 0)
(8.99504 1.03021 0)
(8.80212 1.16303 0)
(8.59083 1.30701 0)
(8.36052 1.46309 0)
(8.11046 1.63215 0)
(7.83982 1.81487 0)
(7.54762 2.01167 0)
(7.23268 2.22252 0)
(6.89351 2.44674 0)
(6.52817 2.6827 0)
(6.13409 2.92737 0)
(5.70785 3.17578 0)
(5.24496 3.42038 0)
(4.73977 3.65021 0)
(4.18546 3.85024 0)
(3.57473 4.00089 0)
(2.89949 4.0779 0)
(2.16209 4.05238 0)
(1.3161 3.90169 0)
(0.58321 3.54014 0)
(9.99326 0.090927 0)
(9.97072 0.180406 0)
(9.93046 0.269664 0)
(9.87362 0.360237 0)
(9.80118 0.453641 0)
(9.71344 0.551203 0)
(9.61039 0.654105 0)
(9.49189 0.763489 0)
(9.35777 0.880498 0)
(9.20775 1.00627 0)
(9.04147 1.14195 0)
(8.85849 1.28866 0)
(8.65829 1.44752 0)
(8.44023 1.61959 0)
(8.20359 1.80587 0)
(7.94747 2.00721 0)
(7.6708 2.22425 0)
(7.37217 2.45728 0)
(7.0498 2.70607 0)
(6.70128 2.96958 0)
(6.32335 3.24568 0)
(5.91164 3.53055 0)
(5.46035 3.81808 0)
(4.96199 4.099 0)
(4.40738 4.35988 0)
(3.78637 4.58211 0)
(3.08752 4.74107 0)
(2.31266 4.80445 0)
(1.41061 4.74106 0)
(0.614292 4.44189 0)
(9.99352 0.0989907 0)
(9.97191 0.196576 0)
(9.93341 0.294191 0)
(9.87925 0.393411 0)
(9.81041 0.495749 0)
(9.72717 0.602581 0)
(9.62954 0.715175 0)
(9.51742 0.834754 0)
(9.39069 0.962536 0)
(9.24914 1.09974 0)
(9.09247 1.24758 0)
(8.92029 1.40729 0)
(8.73215 1.58006 0)
(8.52744 1.7671 0)
(8.30545 1.96956 0)
(8.06527 2.18849 0)
(7.80574 2.4248 0)
(7.52531 2.67918 0)
(7.22192 2.95194 0)
(6.89277 3.24284 0)
(6.53403 3.55081 0)
(6.14047 3.87352 0)
(5.70503 4.20673 0)
(5.21845 4.54341 0)
(4.66895 4.87245 0)
(4.04281 5.17698 0)
(3.32362 5.4323 0)
(2.5097 5.60194 0)
(1.54181 5.64345 0)
(0.664029 5.41798 0)
(9.99384 0.106702 0)
(9.9733 0.211997 0)
(9.9368 0.317497 0)
(9.88558 0.424849 0)
(9.82064 0.535581 0)
(9.74226 0.651112 0)
(9.65045 0.772778 0)
(9.54519 0.901876 0)
(9.42639 1.03969 0)
(9.29392 1.18751 0)
(9.14754 1.34662 0)
(8.98696 1.51834 0)
(8.81177 1.70398 0)
(8.62145 1.90487 0)
(8.41534 2.12231 0)
(8.19254 2.3576 0)
(7.9519 2.61197 0)
(7.6918 2.88655 0)
(7.41006 3.1823 0)
(7.10364 3.49988 0)
(6.76834 3.8395 0)
(6.39832 4.20058 0)
(5.98553 4.58122 0)
(5.51904 4.97737 0)
(4.98431 5.38135 0)
(4.36318 5.77957 0)
(3.63179 6.14913 0)
(2.78001 6.45063 0)
(1.73336 6.62844 0)
(0.744785 6.50299 0)
(9.9942 0.114004 0)
(9.97487 0.226571 0)
(9.94056 0.339468 0)
(9.89252 0.454416 0)
(9.83174 0.572975 0)
(9.75851 0.696599 0)
(9.67289 0.826683 0)
(9.57489 0.964582 0)
(9.46449 1.11164 0)
(9.34164 1.26921 0)
(9.20617 1.43864 0)
(9.05788 1.62133 0)
(8.89646 1.81868 0)
(8.72149 2.03215 0)
(8.53239 2.26323 0)
(8.32838 2.51344 0)
(8.10837 2.78436 0)
(7.87083 3.07758 0)
(7.61362 3.39475 0)
(7.33374 3.73752 0)
(7.02691 4.10749 0)
(6.68713 4.50607 0)
(6.30584 4.93416 0)
(5.87102 5.3915 0)
(5.36568 5.8754 0)
(4.76676 6.37828 0)
(4.04055 6.88323 0)
(3.16128 7.35346 0)
(2.02459 7.7231 0)
(0.880647 7.75692 0)
(9.99459 0.120851 0)
(9.97657 0.24022 0)
(9.94461 0.360001 0)
(9.89996 0.481993 0)
(9.84356 0.607786 0)
(9.77576 0.738871 0)
(9.69663 0.876685 0)
(9.60624 1.02263 0)
(9.50465 1.17811 0)
(9.39186 1.3445 0)
(9.26783 1.52324 0)
(9.13244 1.71577 0)
(8.9855 1.9236 0)
(8.82671 2.14829 0)
(8.65565 2.39148 0)
(8.4717 2.65493 0)
(8.27395 2.94054 0)
(8.0611 3.25036 0)
(7.83127 3.58671 0)
(7.58179 3.95221 0)
(7.30877 4.34989 0)
(7.00661 4.78322 0)
(6.66715 5.25617 0)
(6.27837 5.77303 0)
(5.82231 6.33777 0)
(5.27228 6.95248 0)
(4.58427 7.61367 0)
(3.70966 8.30088 0)
(2.4879 8.95807 0)
(1.12431 9.29292 0)
(9.99501 0.127208 0)
(9.97838 0.25288 0)
(9.94891 0.379014 0)
(9.9078 0.507478 0)
(9.85599 0.639897 0)
(9.79382 0.777789 0)
(9.72143 0.922624 0)
(9.63895 1.07584 0)
(9.54649 1.23888 0)
(9.44414 1.41316 0)
(9.33197 1.60014 0)
(9.20997 1.80134 0)
(9.07808 2.01832 0)
(8.93617 2.25274 0)
(8.78401 2.50638 0)
(8.62119 2.78118 0)
(8.44711 3.0793 0)
(8.26083 3.40321 0)
(8.06096 3.7558 0)
(7.84545 4.14055 0)
(7.61129 4.56174 0)
(7.35403 5.02479 0)
(7.06706 5.53664 0)
(6.74027 6.10627 0)
(6.35772 6.74538 0)
(5.89379 7.46905 0)
(5.3004 8.29642 0)
(4.50839 9.24797 0)
(3.26832 10.3416 0)
(1.60468 11.3586 0)
(9.99545 0.133048 0)
(9.98026 0.264499 0)
(9.95339 0.396435 0)
(9.91596 0.530779 0)
(9.86888 0.669187 0)
(9.81253 0.813199 0)
(9.74709 0.964307 0)
(9.67272 1.12398 0)
(9.58965 1.29366 0)
(9.49804 1.47482 0)
(9.39804 1.66894 0)
(9.2898 1.87755 0)
(9.1734 2.10228 0)
(9.04889 2.34483 0)
(8.91627 2.60709 0)
(8.77542 2.89112 0)
(8.62609 3.19928 0)
(8.46785 3.53433 0)
(8.29996 3.89958 0)
(8.12129 4.29912 0)
(7.93012 4.73817 0)
(7.7239 5.22357 0)
(7.49879 5.76455 0)
(7.24889 6.37392 0)
(6.9647 7.07012 0)
(6.63069 7.88098 0)
(6.21403 8.8519 0)
(5.6653 10.0659 0)
(4.68943 11.7308 0)
(2.68682 14.5911 0)
(0.115192 -0.11381 0)
(0.270576 -0.102643 0)
(0.427064 -0.0796902 0)
(0.556071 -0.0581084 0)
(0.653619 -0.0406179 0)
(0.724896 -0.0271471 0)
(0.776205 -0.0170423 0)
(0.812685 -0.00965105 0)
(0.838238 -0.00440939 0)
(0.855896 -0.000833402 0)
(0.868048 0.00148214 0)
(0.876551 0.00285997 0)
(0.882826 0.0035507 0)
(0.887945 0.00375304 0)
(0.892702 0.00363221 0)
(0.897632 0.00333218 0)
(0.903013 0.00298432 0)
(0.908837 0.00271328 0)
(0.914815 0.00263302 0)
(0.920411 0.00282763 0)
(0.924933 0.00332282 0)
(0.927685 0.00405235 0)
(0.92818 0.00482143 0)
(0.926438 0.00544355 0)
(0.922326 0.005931 0)
(0.915994 0.00629555 0)
(0.907657 0.00654525 0)
(0.897457 0.00669244 0)
(0.885682 0.00655865 0)
(0.871507 0.00509665 0)
(0.100144 -0.270253 0)
(0.252898 -0.250863 0)
(0.400135 -0.201284 0)
(0.524305 -0.153584 0)
(0.622657 -0.114711 0)
(0.699924 -0.0846506 0)
(0.761399 -0.0619605 0)
(0.811217 -0.0451876 0)
(0.852438 -0.0330811 0)
(0.887385 -0.0245698 0)
(0.917835 -0.0187548 0)
(0.945115 -0.0149317 0)
(0.970198 -0.012568 0)
(0.993806 -0.0112563 0)
(1.01647 -0.0106682 0)
(1.03859 -0.0105198 0)
(1.06041 -0.0105489 0)
(1.08207 -0.0105053 0)
(1.10358 -0.0101625 0)
(1.1248 -0.00935458 0)
(1.1455 -0.00802242 0)
(1.16535 -0.00624611 0)
(1.18399 -0.00423268 0)
(1.20082 -0.00218313 0)
(1.21578 -0.000217873 0)
(1.22888 0.00160678 0)
(1.24026 0.00336888 0)
(1.24953 0.00499685 0)
(1.25651 0.00606577 0)
(1.26298 0.00520465 0)
(0.0802628 -0.428947 0)
(0.212998 -0.39701 0)
(0.331023 -0.320555 0)
(0.429976 -0.24774 0)
(0.507675 -0.188854 0)
(0.568974 -0.143451 0)
(0.61825 -0.109166 0)
(0.658677 -0.0837253 0)
(0.692571 -0.0652242 0)
(0.721734 -0.0520462 0)
(0.747531 -0.0428204 0)
(0.770927 -0.0364847 0)
(0.792598 -0.032254 0)
(0.813037 -0.029546 0)
(0.832612 -0.0279066 0)
(0.851598 -0.026952 0)
(0.870192 -0.0263312 0)
(0.888517 -0.0257119 0)
(0.906613 -0.0247976 0)
(0.92443 -0.0233744 0)
(0.941848 -0.0213658 0)
(0.958709 -0.0188452 0)
(0.974878 -0.0159616 0)
(0.990263 -0.0129213 0)
(1.00483 -0.0100171 0)
(1.01867 -0.00737963 0)
(1.03193 -0.00486641 0)
(1.04517 -0.00244753 0)
(1.05811 -0.000423942 0)
(1.07196 0.00089269 0)
(0.0606849 -0.556017 0)
(0.167542 -0.506551 0)
(0.24949 -0.405609 0)
(0.318625 -0.312598 0)
(0.370732 -0.238807 0)
(0.411485 -0.182479 0)
(0.444091 -0.140154 0)
(0.470564 -0.108778 0)
(0.492343 -0.0859579 0)
(0.510699 -0.0696738 0)
(0.526598 -0.0581706 0)
(0.540617 -0.0501384 0)
(0.553126 -0.0446197 0)
(0.564398 -0.0409207 0)
(0.574655 -0.0385091 0)
(0.584089 -0.0369428 0)
(0.592867 -0.0358227 0)
(0.601133 -0.0347707 0)
(0.608997 -0.0334417 0)
(0.616503 -0.0315778 0)
(0.623636 -0.0290825 0)
(0.630348 -0.0260456 0)
(0.636582 -0.0226403 0)
(0.642275 -0.019105 0)
(0.647371 -0.0158199 0)
(0.651882 -0.0129646 0)
(0.656014 -0.0103271 0)
(0.660007 -0.00797614 0)
(0.66339 -0.00635035 0)
(0.667958 -0.0040739 0)
(0.0402411 -0.652791 0)
(0.115807 -0.581292 0)
(0.156189 -0.459063 0)
(0.193609 -0.351656 0)
(0.217265 -0.268174 0)
(0.234836 -0.205102 0)
(0.247821 -0.157847 0)
(0.257089 -0.122683 0)
(0.263178 -0.0970555 0)
(0.266981 -0.0787635 0)
(0.269138 -0.0655936 0)
(0.269871 -0.0561474 0)
(0.269315 -0.0494015 0)
(0.267575 -0.0446401 0)
(0.264784 -0.04132 0)
(0.261098 -0.0389988 0)
(0.256706 -0.0372841 0)
(0.251843 -0.0357947 0)
(0.246738 -0.0341503 0)
(0.241535 -0.032028 0)
(0.23627 -0.0292705 0)
(0.23091 -0.0259683 0)
(0.22533 -0.0223088 0)
(0.21937 -0.0185046 0)
(0.212956 -0.0150374 0)
(0.205561 -0.0125143 0)
(0.197132 -0.0103434 0)
(0.189349 -0.00690941 0)
(0.178734 -0.00264744 0)
(0.160664 0.000373308 0)
(0.0182616 -0.713865 0)
(0.0570432 -0.616864 0)
(0.0520858 -0.477034 0)
(0.0563956 -0.360925 0)
(0.0492139 -0.271869 0)
(0.0409407 -0.205305 0)
(0.0309327 -0.155541 0)
(0.0193438 -0.11828 0)
(0.00611356 -0.0909185 0)
(-0.008145 -0.071649 0)
(-0.0229944 -0.0580722 0)
(-0.0384676 -0.0482452 0)
(-0.0543819 -0.0411208 0)
(-0.0706848 -0.0360675 0)
(-0.0872391 -0.0325911 0)
(-0.103873 -0.030285 0)
(-0.120362 -0.0287636 0)
(-0.136466 -0.0275982 0)
(-0.152054 -0.026321 0)
(-0.167215 -0.0245078 0)
(-0.182216 -0.0219592 0)
(-0.197359 -0.018884 0)
(-0.212912 -0.0155652 0)
(-0.22887 -0.0118109 0)
(-0.245055 -0.00741751 0)
(-0.263174 -0.00304964 0)
(-0.28496 0.000551516 0)
(-0.304491 0.00396354 0)
(-0.316913 0.00636835 0)
(-0.323434 0.00560976 0)
(-0.00695803 -0.73194 0)
(-0.0108179 -0.607159 0)
(-0.0618429 -0.455765 0)
(-0.0943644 -0.337671 0)
(-0.134151 -0.248167 0)
(-0.171779 -0.182435 0)
(-0.207951 -0.133808 0)
(-0.242506 -0.0976932 0)
(-0.275759 -0.0714816 0)
(-0.307705 -0.0530596 0)
(-0.33814 -0.0403987 0)
(-0.366899 -0.03144 0)
(-0.39393 -0.0250645 0)
(-0.419474 -0.0207742 0)
(-0.443761 -0.0180999 0)
(-0.46704 -0.0166328 0)
(-0.489495 -0.0159761 0)
(-0.511237 -0.0156454 0)
(-0.532395 -0.0150308 0)
(-0.55322 -0.0134957 0)
(-0.574115 -0.0106537 0)
(-0.595634 -0.00671783 0)
(-0.61886 -0.00257126 0)
(-0.642074 0.0010388 0)
(-0.662145 0.00418338 0)
(-0.677203 0.00681143 0)
(-0.688418 0.00842285 0)
(-0.698867 0.00917676 0)
(-0.70773 0.00920843 0)
(-0.712881 0.00825383 0)
(-0.0388216 -0.698184 0)
(-0.0901375 -0.550265 0)
(-0.186217 -0.398473 0)
(-0.260399 -0.283924 0)
(-0.334414 -0.199084 0)
(-0.402187 -0.138573 0)
(-0.462964 -0.095258 0)
(-0.516721 -0.0634145 0)
(-0.564676 -0.0400843 0)
(-0.608351 -0.0237525 0)
(-0.649095 -0.0129646 0)
(-0.687233 -0.0064421 0)
(-0.720925 -0.00285147 0)
(-0.751177 -0.000903586 0)
(-0.778956 6.47807e-05 0)
(-0.805151 0.000407208 0)
(-0.83043 0.000388674 0)
(-0.855219 0.000346306 0)
(-0.879705 0.000716688 0)
(-0.903783 0.00189997 0)
(-0.92693 0.00405355 0)
(-0.948197 0.00686574 0)
(-0.966301 0.00943055 0)
(-0.982059 0.0110286 0)
(-0.996128 0.0118368 0)
(-1.0082 0.0124566 0)
(-1.01844 0.013188 0)
(-1.02744 0.0137116 0)
(-1.03492 0.0134064 0)
(-1.03892 0.012377 0)
(-0.0787273 -0.608207 0)
(-0.181058 -0.443375 0)
(-0.329386 -0.298365 0)
(-0.449537 -0.194371 0)
(-0.56028 -0.120194 0)
(-0.659666 -0.0681469 0)
(-0.74772 -0.032899 0)
(-0.823927 -0.00987498 0)
(-0.884635 0.00427271 0)
(-0.933524 0.0130403 0)
(-0.973135 0.0179466 0)
(-1.00633 0.0199663 0)
(-1.03635 0.0203031 0)
(-1.06393 0.0198529 0)
(-1.08964 0.0190619 0)
(-1.11383 0.0180511 0)
(-1.13654 0.0168388 0)
(-1.15769 0.0155954 0)
(-1.17729 0.0147135 0)
(-1.19564 0.01461 0)
(-1.21322 0.0154277 0)
(-1.23041 0.0168715 0)
(-1.24709 0.0183118 0)
(-1.26265 0.0190671 0)
(-1.27635 0.0188952 0)
(-1.28776 0.018255 0)
(-1.29712 0.0177474 0)
(-1.30511 0.0174229 0)
(-1.31162 0.0168211 0)
(-1.31485 0.0159948 0)
(-0.132306 -0.456817 0)
(-0.295078 -0.283947 0)
(-0.504871 -0.15484 0)
(-0.678034 -0.0651796 0)
(-0.822309 -0.00852809 0)
(-0.932713 0.0216304 0)
(-1.0175 0.0368674 0)
(-1.08273 0.043256 0)
(-1.13681 0.0454807 0)
(-1.18204 0.0455983 0)
(-1.22067 0.0445755 0)
(-1.25424 0.0427977 0)
(-1.28384 0.0404375 0)
(-1.31042 0.0378458 0)
(-1.33485 0.0353379 0)
(-1.35775 0.0328901 0)
(-1.37931 0.0303382 0)
(-1.3994 0.0277988 0)
(-1.41794 0.0258176 0)
(-1.43527 0.0250194 0)
(-1.45202 0.025541 0)
(-1.46871 0.0267757 0)
(-1.48523 0.0276832 0)
(-1.50079 0.027397 0)
(-1.51431 0.0257987 0)
(-1.52515 0.0236431 0)
(-1.53365 0.0218746 0)
(-1.54071 0.0207808 0)
(-1.54638 0.0199809 0)
(-1.54907 0.0193634 0)
(-0.210116 -0.25312 0)
(-0.451664 -0.0524956 0)
(-0.70319 0.0518584 0)
(-0.884584 0.0911577 0)
(-1.02321 0.102587 0)
(-1.13296 0.103474 0)
(-1.21977 0.0993409 0)
(-1.28912 0.0930534 0)
(-1.34507 0.0859481 0)
(-1.39098 0.0789677 0)
(-1.42965 0.0725625 0)
(-1.46295 0.0665822 0)
(-1.492 0.0609168 0)
(-1.51781 0.055856 0)
(-1.54144 0.051649 0)
(-1.56377 0.0479946 0)
(-1.58494 0.0443025 0)
(-1.60454 0.0404478 0)
(-1.62226 0.0371205 0)
(-1.63849 0.0353052 0)
(-1.65421 0.0353327 0)
(-1.67031 0.0363965 0)
(-1.68677 0.0369613 0)
(-1.70253 0.0357325 0)
(-1.71602 0.032568 0)
(-1.72631 0.0286397 0)
(-1.73384 0.0254736 0)
(-1.73987 0.02368 0)
(-1.74471 0.0228124 0)
(-1.74693 0.0224172 0)
(-0.298492 0.144513 0)
(-0.573226 0.246522 0)
(-0.849382 0.258176 0)
(-1.04944 0.243225 0)
(-1.20196 0.218413 0)
(-1.31766 0.19161 0)
(-1.40616 0.166789 0)
(-1.4751 0.145133 0)
(-1.52957 0.126647 0)
(-1.57358 0.111617 0)
(-1.61051 0.099739 0)
(-1.64243 0.0897613 0)
(-1.67022 0.0808064 0)
(-1.69462 0.0731643 0)
(-1.71693 0.0672886 0)
(-1.73839 0.0626078 0)
(-1.75909 0.0578737 0)
(-1.77814 0.0525683 0)
(-1.79477 0.0476493 0)
(-1.80942 0.0447352 0)
(-1.82367 0.0444862 0)
(-1.83899 0.0457763 0)
(-1.85555 0.0463428 0)
(-1.87182 0.044261 0)
(-1.88553 0.0392986 0)
(-1.89523 0.0332222 0)
(-1.90152 0.0284509 0)
(-1.90625 0.0260434 0)
(-1.91015 0.0252723 0)
(-1.91196 0.0251137 0)
(-0.358273 0.559091 0)
(-0.69807 0.579377 0)
(-1.0219 0.496433 0)
(-1.23673 0.411554 0)
(-1.39022 0.339706 0)
(-1.50115 0.279045 0)
(-1.5832 0.231341 0)
(-1.64611 0.1944 0)
(-1.69512 0.164738 0)
(-1.73407 0.141825 0)
(-1.76702 0.125064 0)
(-1.79634 0.111671 0)
(-1.82206 0.099453 0)
(-1.84418 0.0890031 0)
(-1.86432 0.0815854 0)
(-1.88443 0.0763964 0)
(-1.90467 0.071016 0)
(-1.92324 0.0641475 0)
(-1.93848 0.0571884 0)
(-1.95091 0.0529238 0)
(-1.96304 0.0526783 0)
(-1.97736 0.0548331 0)
(-1.99426 0.0559715 0)
(-2.01156 0.053199 0)
(-2.02585 0.0460967 0)
(-2.03488 0.0372897 0)
(-2.03946 0.0305845 0)
(-2.04243 0.0277132 0)
(-2.04524 0.0273277 0)
(-2.04666 0.027457 0)
(-0.477539 1.07419 0)
(-0.908802 0.982729 0)
(-1.26616 0.756624 0)
(-1.46414 0.57389 0)
(-1.59616 0.451063 0)
(-1.68837 0.353729 0)
(-1.75325 0.284965 0)
(-1.8035 0.237222 0)
(-1.84315 0.198274 0)
(-1.87381 0.167396 0)
(-1.90042 0.146627 0)
(-1.9262 0.131239 0)
(-1.94947 0.116241 0)
(-1.96839 0.102877 0)
(-1.9851 0.0943578 0)
(-2.00326 0.0898081 0)
(-2.02328 0.0845945 0)
(-2.04179 0.0759225 0)
(-2.05546 0.065963 0)
(-2.06476 0.0596863 0)
(-2.07381 0.0597257 0)
(-2.08678 0.0636498 0)
(-2.10443 0.0661722 0)
(-2.12357 0.0629282 0)
(-2.139 0.0531567 0)
(-2.14722 0.0406926 0)
(-2.14932 0.0315007 0)
(-2.14979 0.0284237 0)
(-2.15131 0.0289578 0)
(-2.15243 0.0294969 0)
(-0.709571 2.07587 0)
(-1.24431 1.64881 0)
(-1.62373 1.0486 0)
(-1.74939 0.659647 0)
(-1.82192 0.524195 0)
(-1.87886 0.410862 0)
(-1.91195 0.330815 0)
(-1.94361 0.277177 0)
(-1.97351 0.225454 0)
(-1.99354 0.182365 0)
(-2.01041 0.160856 0)
(-2.0317 0.149147 0)
(-2.05288 0.133288 0)
(-2.06778 0.115746 0)
(-2.07932 0.105062 0)
(-2.09476 0.101953 0)
(-2.11547 0.097614 0)
(-2.13513 0.0864944 0)
(-2.14719 0.0719922 0)
(-2.1519 0.0628661 0)
(-2.15625 0.0640363 0)
(-2.16728 0.0715759 0)
(-2.18628 0.0769919 0)
(-2.20842 0.0737757 0)
(-2.22588 0.0606612 0)
(-2.23305 0.0431527 0)
(-2.23144 0.0305644 0)
(-2.22825 0.0277351 0)
(-2.22825 0.0301946 0)
(-2.22925 0.0314257 0)
(9.9959 0.138443 0)
(9.98225 0.275233 0)
(9.95811 0.412516 0)
(9.92454 0.552262 0)
(9.88242 0.696147 0)
(9.83217 0.845724 0)
(9.774 1.0025 0)
(9.70816 1.16795 0)
(9.63493 1.34354 0)
(9.5546 1.53072 0)
(9.46741 1.73101 0)
(9.37365 1.94593 0)
(9.27358 2.17713 0)
(9.16745 2.42634 0)
(9.05552 2.69548 0)
(8.93799 2.98668 0)
(8.81507 3.30239 0)
(8.68689 3.64551 0)
(8.55352 4.01956 0)
(8.41497 4.4289 0)
(8.27114 4.87919 0)
(8.12194 5.37787 0)
(7.9673 5.93514 0)
(7.80749 6.56534 0)
(7.6437 7.28954 0)
(7.48089 8.14034 0)
(7.33231 9.17169 0)
(7.28794 10.4771 0)
(7.74546 12.2015 0)
(7.92592 14.9199 0)
(9.99638 0.143402 0)
(9.98434 0.285087 0)
(9.96305 0.427244 0)
(9.93352 0.571871 0)
(9.89657 0.720661 0)
(9.85262 0.875171 0)
(9.80197 1.03691 0)
(9.74493 1.20735 0)
(9.68185 1.38795 0)
(9.6131 1.58017 0)
(9.53909 1.78549 0)
(9.4602 2.00543 0)
(9.3769 2.24161 0)
(9.28966 2.49576 0)
(9.19899 2.76975 0)
(9.10548 3.06571 0)
(9.00978 3.38606 0)
(8.91264 3.73366 0)
(8.81497 4.11194 0)
(8.71795 4.52518 0)
(8.62319 4.9788 0)
(8.53305 5.47983 0)
(8.45124 6.03758 0)
(8.38402 6.66465 0)
(8.34255 7.37827 0)
(8.34891 8.20186 0)
(8.4419 9.16556 0)
(8.67739 10.3027 0)
(9.32414 11.558 0)
(9.81385 12.6475 0)
(9.99688 0.147839 0)
(9.98651 0.293898 0)
(9.96819 0.440394 0)
(9.94283 0.58934 0)
(9.91121 0.742433 0)
(9.87378 0.901224 0)
(9.83086 1.06721 0)
(9.78284 1.24185 0)
(9.73014 1.42657 0)
(9.67324 1.62281 0)
(9.61264 1.832 0)
(9.5489 2.05564 0)
(9.48263 2.29527 0)
(9.41454 2.55255 0)
(9.34542 2.82929 0)
(9.2762 3.12748 0)
(9.20796 3.44941 0)
(9.14206 3.79769 0)
(9.08017 4.17546 0)
(9.02451 4.58648 0)
(8.9781 5.03534 0)
(8.94522 5.52773 0)
(8.93215 6.07063 0)
(8.94842 6.67244 0)
(9.0085 7.3426 0)
(9.13455 8.08978 0)
(9.35756 8.91586 0)
(9.68706 9.80979 0)
(10.2529 10.7202 0)
(10.9408 11.4373 0)
(9.9974 0.151701 0)
(9.98874 0.301559 0)
(9.97347 0.4518 0)
(9.95239 0.604439 0)
(9.92623 0.761163 0)
(9.89545 0.923507 0)
(9.86042 1.09294 0)
(9.82158 1.2709 0)
(9.77943 1.45877 0)
(9.73452 1.65793 0)
(9.68748 1.86977 0)
(9.63899 2.09568 0)
(9.58984 2.33714 0)
(9.54093 2.59569 0)
(9.4933 2.87297 0)
(9.44819 3.17078 0)
(9.40709 3.49115 0)
(9.37181 3.83632 0)
(9.34467 4.20888 0)
(9.32863 4.6118 0)
(9.32762 5.04849 0)
(9.34695 5.52279 0)
(9.39385 6.03883 0)
(9.47824 6.60057 0)
(9.61332 7.21081 0)
(9.81594 7.86921 0)
(10.1089 8.56869 0)
(10.5008 9.29461 0)
(11.0586 10.0368 0)
(11.8522 10.6822 0)
(9.99792 0.15494 0)
(9.99101 0.307978 0)
(9.97884 0.461327 0)
(9.96212 0.616989 0)
(9.9415 0.776632 0)
(9.91745 0.941761 0)
(9.8904 1.11381 0)
(9.86082 1.29417 0)
(9.82927 1.48416 0)
(9.79641 1.68511 0)
(9.76292 1.8983 0)
(9.72963 2.12504 0)
(9.69746 2.36667 0)
(9.66748 2.62456 0)
(9.64095 2.90017 0)
(9.61936 3.19503 0)
(9.60447 3.51078 0)
(9.59847 3.84922 0)
(9.60406 4.21226 0)
(9.62461 4.60195 0)
(9.66446 5.02039 0)
(9.72912 5.46959 0)
(9.82568 5.95117 0)
(9.96309 6.46584 0)
(10.1524 7.01251 0)
(10.4067 7.58731 0)
(10.7434 8.18213 0)
(11.174 8.78227 0)
(11.7216 9.37615 0)
(12.4752 9.88885 0)
(9.99845 0.157514 0)
(9.9933 0.313069 0)
(9.98427 0.468848 0)
(9.97194 0.626826 0)
(9.9569 0.788636 0)
(9.93961 0.955745 0)
(9.92054 1.12954 0)
(9.90021 1.31134 0)
(9.87924 1.50241 0)
(9.85832 1.70397 0)
(9.83824 1.91722 0)
(9.81991 2.14333 0)
(9.80437 2.38348 0)
(9.79282 2.63885 0)
(9.78666 2.91065 0)
(9.78755 3.2001 0)
(9.79746 3.50843 0)
(9.81876 3.83691 0)
(9.8543 4.18676 0)
(9.90758 4.55908 0)
(9.98288 4.9548 0)
(10.0854 5.37437 0)
(10.2216 5.81755 0)
(10.3989 6.28286 0)
(10.6261 6.76707 0)
(10.913 7.26439 0)
(11.2708 7.76561 0)
(11.7074 8.25515 0)
(12.2238 8.71631 0)
(12.9001 9.10756 0)
(9.99898 0.159383 0)
(9.9956 0.316754 0)
(9.98971 0.47425 0)
(9.98176 0.633801 0)
(9.97228 0.796996 0)
(9.96173 0.965249 0)
(9.95059 1.13988 0)
(9.93941 1.32215 0)
(9.92886 1.51323 0)
(9.91967 1.71424 0)
(9.91269 1.92625 0)
(9.90891 2.15029 0)
(9.90942 2.38736 0)
(9.91553 2.63843 0)
(9.92871 2.90442 0)
(9.95072 3.18624 0)
(9.98359 3.48468 0)
(10.0297 3.80049 0)
(10.092 4.1342 0)
(10.1736 4.48614 0)
(10.2787 4.85619 0)
(10.4118 5.24365 0)
(10.5782 5.64695 0)
(10.7838 6.06329 0)
(11.0352 6.48816 0)
(11.3386 6.91489 0)
(11.7002 7.3341 0)
(12.1241 7.73239 0)
(12.6043 8.09516 0)
(13.2101 8.40187 0)
(9.99951 0.160514 0)
(9.99789 0.318968 0)
(9.9951 0.477435 0)
(9.9915 0.637789 0)
(9.98752 0.80156 0)
(9.98361 0.970101 0)
(9.98026 1.14466 0)
(9.97805 1.32641 0)
(9.97766 1.51643 0)
(9.97986 1.71572 0)
(9.98554 1.92523 0)
(9.99571 2.14582 0)
(10.0115 2.3783 0)
(10.0343 2.62341 0)
(10.0655 2.8818 0)
(10.107 3.15403 0)
(10.1606 3.44052 0)
(10.2289 3.74149 0)
(10.3143 4.05693 0)
(10.4199 4.38647 0)
(10.5492 4.72924 0)
(10.7059 5.08373 0)
(10.8942 5.44753 0)
(11.1185 5.81714 0)
(11.3831 6.18764 0)
(11.6916 6.55247 0)
(12.047 6.90335 0)
(12.4508 7.22996 0)
(12.8953 7.52113 0)
(13.4386 7.76554 0)
(10 0.160879 0)
(10.0001 0.319656 0)
(10.0004 0.478325 0)
(10.0011 0.638689 0)
(10.0025 0.802211 0)
(10.0051 0.970171 0)
(10.0093 1.14374 0)
(10.0158 1.32399 0)
(10.0252 1.5119 0)
(10.0383 1.70834 0)
(10.0561 1.91413 0)
(10.0794 2.12997 0)
(10.1096 2.35646 0)
(10.1478 2.59412 0)
(10.1956 2.84335 0)
(10.2546 3.10437 0)
(10.3268 3.37725 0)
(10.4142 3.66181 0)
(10.5192 3.95756 0)
(10.6444 4.26362 0)
(10.7926 4.5786 0)
(10.9668 4.90048 0)
(11.1701 5.22647 0)
(11.4054 5.55286 0)
(11.6752 5.8749 0)
(11.9814 6.18672 0)
(12.325 6.48145 0)
(12.7055 6.75126 0)
(13.1154 6.98778 0)
(13.6034 7.18416 0)
(10.0005 0.160456 0)
(10.0023 0.318775 0)
(10.0056 0.476859 0)
(10.0104 0.636427 0)
(10.017 0.798866 0)
(10.0259 0.965375 0)
(10.0374 1.13703 0)
(10.0523 1.31482 0)
(10.071 1.4996 0)
(10.0945 1.69212 0)
(10.1236 1.89305 0)
(10.1593 2.10293 0)
(10.2027 2.32218 0)
(10.2551 2.55111 0)
(10.3178 2.78985 0)
(10.3924 3.03838 0)
(10.4806 3.29645 0)
(10.5842 3.56354 0)
(10.7053 3.83883 0)
(10.846 4.12109 0)
(11.0085 4.40861 0)
(11.195 4.69916 0)
(11.4074 4.98984 0)
(11.6478 5.27708 0)
(11.9172 5.55657 0)
(12.2164 5.82334 0)
(12.5449 6.07185 0)
(12.9013 6.2962 0)
(13.2787 6.49034 0)
(13.7188 6.65011 0)
(10.001 0.15923 0)
(10.0044 0.316297 0)
(10.0106 0.472998 0)
(10.0194 0.630958 0)
(10.0311 0.791479 0)
(10.0459 0.955673 0)
(10.0644 1.12453 0)
(10.0872 1.29892 0)
(10.1148 1.47959 0)
(10.148 1.66718 0)
(10.1876 1.8622 0)
(10.2347 2.06505 0)
(10.2901 2.27597 0)
(10.3552 2.49506 0)
(10.4311 2.72228 0)
(10.5192 2.95735 0)
(10.621 3.19979 0)
(10.738 3.44885 0)
(10.872 3.70346 0)
(11.0245 3.9622 0)
(11.1971 4.22323 0)
(11.3914 4.48426 0)
(11.6086 4.74253 0)
(11.8496 4.99477 0)
(12.1148 5.23727 0)
(12.4039 5.46592 0)
(12.7158 5.67639 0)
(13.0487 5.86432 0)
(13.3964 6.02547 0)
(13.7953 6.15732 0)
(10.0015 0.157194 0)
(10.0065 0.312207 0)
(10.0154 0.466723 0)
(10.028 0.622264 0)
(10.0445 0.780042 0)
(10.065 0.941076 0)
(10.0901 1.10626 0)
(10.1202 1.27636 0)
(10.1561 1.45201 0)
(10.1983 1.63373 0)
(10.2476 1.8219 0)
(10.3049 2.01677 0)
(10.3711 2.21843 0)
(10.4474 2.42683 0)
(10.5347 2.64173 0)
(10.6343 2.86269 0)
(10.7474 3.08906 0)
(10.8752 3.31991 0)
(11.019 3.55407 0)
(11.1801 3.79001 0)
(11.3594 4.02591 0)
(11.5579 4.25956 0)
(11.7763 4.48844 0)
(12.0147 4.70969 0)
(12.2731 4.9202 0)
(12.5505 5.11668 0)
(12.8456 5.29581 0)
(13.1562 5.45444 0)
(13.4772 5.58963 0)
(13.8407 5.69989 0)
(10.0019 0.154346 0)
(10.0084 0.306504 0)
(10.0199 0.458038 0)
(10.0361 0.610359 0)
(10.0571 0.764583 0)
(10.083 0.921638 0)
(10.1142 1.08232 0)
(10.1512 1.24728 0)
(10.1946 1.41707 0)
(10.245 1.59208 0)
(10.303 1.77257 0)
(10.3695 1.95865 0)
(10.4453 2.15031 0)
(10.5312 2.34734 0)
(10.6283 2.54937 0)
(10.7374 2.75585 0)
(10.8595 2.966 0)
(10.9957 3.17882 0)
(11.1467 3.39307 0)
(11.3135 3.60726 0)
(11.4966 3.81962 0)
(11.6966 4.02814 0)
(11.9135 4.23061 0)
(12.1472 4.42457 0)
(12.3971 4.60751 0)
(12.6621 4.77683 0)
(12.9406 4.93005 0)
(13.2306 5.06489 0)
(13.5276 5.17937 0)
(13.8607 5.27264 0)
(10.0024 0.150693 0)
(10.0102 0.299203 0)
(10.0241 0.446966 0)
(10.0438 0.595282 0)
(10.0689 0.745168 0)
(10.0997 0.897457 0)
(10.1366 1.05285 0)
(10.1799 1.2119 0)
(10.2302 1.37505 0)
(10.2879 1.5426 0)
(10.3537 1.71468 0)
(10.4283 1.89133 0)
(10.5123 2.07239 0)
(10.6064 2.25757 0)
(10.7115 2.44642 0)
(10.8283 2.63828 0)
(10.9575 2.83232 0)
(11.0998 3.02752 0)
(11.2558 3.22266 0)
(11.426 3.41631 0)
(11.6106 3.60685 0)
(11.8098 3.79251 0)
(12.0233 3.97135 0)
(12.2508 4.14138 0)
(12.4913 4.30055 0)
(12.7437 4.44689 0)
(13.0063 4.57853 0)
(13.2774 4.69389 0)
(13.5532 4.79162 0)
(13.8599 4.8713 0)
(10.0027 0.146247 0)
(10.0119 0.290328 0)
(10.0281 0.433551 0)
(10.0508 0.5771 0)
(10.0798 0.721893 0)
(10.1152 0.868671 0)
(10.1572 1.01804 0)
(10.2062 1.17046 0)
(10.2626 1.32629 0)
(10.3269 1.48571 0)
(10.3995 1.6488 0)
(10.481 1.81547 0)
(10.572 1.98552 0)
(10.673 2.15856 0)
(10.7846 2.33407 0)
(10.9073 2.51137 0)
(11.0418 2.68962 0)
(11.1883 2.86781 0)
(11.3473 3.04478 0)
(11.5189 3.21921 0)
(11.7032 3.38967 0)
(11.9 3.55461 0)
(12.1088 3.71242 0)
(12.3291 3.86146 0)
(12.5598 4.00013 0)
(12.7998 4.12692 0)
(13.0475 4.24048 0)
(13.3013 4.3397 0)
(13.558 4.4237 0)
(13.8418 4.49233 0)
(10.0031 0.141026 0)
(10.0134 0.279918 0)
(10.0317 0.417854 0)
(10.0573 0.555903 0)
(10.0898 0.694886 0)
(10.1293 0.835451 0)
(10.1759 0.978115 0)
(10.23 1.12326 0)
(10.2919 1.27115 0)
(10.3618 1.4219 0)
(10.4403 1.5755 0)
(10.5277 1.73181 0)
(10.6244 1.89054 0)
(10.7309 2.05129 0)
(10.8476 2.21349 0)
(10.9748 2.37646 0)
(11.1129 2.53938 0)
(11.2621 2.70128 0)
(11.4225 2.86111 0)
(11.594 3.01768 0)
(11.7765 3.16974 0)
(11.9697 3.31597 0)