# vtk DataFile Version 2.0

ASCII

DATASET UNSTRUCTURED_GRID

POINTS 11 float 

1.0000000000000000e+00  0.0000000000000000e+00  0.0000000000000000e+00
1.0000000000000000e+00  1.0000000000000001e-01  0.0000000000000000e+00
1.0000000000000000e+00  2.0000000000000001e-01  0.0000000000000000e+00
1.0000000000000000e+00  2.9999999999999999e-01  0.0000000000000000e+00
1.0000000000000000e+00  4.0000000000000002e-01  0.0000000000000000e+00
1.0000000000000000e+00  5.0000000000000000e-01  0.0000000000000000e+00
1.0000000000000000e+00  5.9999999999999998e-01  0.0000000000000000e+00
1.0000000000000000e+00  6.9999999999999996e-01  0.0000000000000000e+00
1.0000000000000000e+00  8.0000000000000004e-01  0.0000000000000000e+00
1.0000000000000000e+00  9.0000000000000002e-01  0.0000000000000000e+00
1.0000000000000000e+00  1.0000000000000000e+00  0.0000000000000000e+00

CELLS 0 0


CELL_TYPES 0


POINT_DATA 11

VECTORS VertexNormals float

0.0000000000000000e+00 0.0000000000000000e+00 0
0.0000000000000000e+00 0.0000000000000000e+00 0
0.0000000000000000e+00 0.0000000000000000e+00 0
0.0000000000000000e+00 0.0000000000000000e+00 0
0.0000000000000000e+00 0.0000000000000000e+00 0
0.0000000000000000e+00 0.0000000000000000e+00 0
0.0000000000000000e+00 0.0000000000000000e+00 0
0.0000000000000000e+00 0.0000000000000000e+00 0
0.0000000000000000e+00 0.0000000000000000e+00 0
0.0000000000000000e+00 0.0000000000000000e+00 0
0.0000000000000000e+00 0.0000000000000000e+00 0

SCALARS Temperature float
LOOKUP_TABLE default
0.0000000000000000e+00
0.0000000000000000e+00
0.0000000000000000e+00
0.0000000000000000e+00
0.0000000000000000e+00
0.0000000000000000e+00
0.0000000000000000e+00
0.0000000000000000e+00
0.0000000000000000e+00
0.0000000000000000e+00
0.0000000000000000e+00

SCALARS Flux float
LOOKUP_TABLE default
-3.0745940858817997e+00
9.4664902806856521e-01
1.4747830697984290e+00
1.4926136916629253e+00
1.5388625511190954e+00
1.5457099746050027e+00
1.5377606870335658e+00
1.5039059613539143e+00
1.4119372234590721e+00
1.2215279567484747e+00
-1.5734606607002666e+00

