# vtk DataFile Version 2.0

ASCII

DATASET UNSTRUCTURED_GRID

POINTS 21 float 

1.5000000000000000e+00  0.0000000000000000e+00  0.0000000000000000e+00
1.5000000000000000e+00  5.0000000000000003e-02  0.0000000000000000e+00
1.5000000000000000e+00  1.0000000000000001e-01  0.0000000000000000e+00
1.5000000000000000e+00  1.4999999999999999e-01  0.0000000000000000e+00
1.5000000000000000e+00  2.0000000000000001e-01  0.0000000000000000e+00
1.5000000000000000e+00  2.5000000000000000e-01  0.0000000000000000e+00
1.5000000000000000e+00  2.9999999999999999e-01  0.0000000000000000e+00
1.5000000000000000e+00  3.4999999999999998e-01  0.0000000000000000e+00
1.5000000000000000e+00  4.0000000000000002e-01  0.0000000000000000e+00
1.5000000000000000e+00  4.5000000000000001e-01  0.0000000000000000e+00
1.5000000000000000e+00  5.0000000000000000e-01  0.0000000000000000e+00
1.5000000000000000e+00  5.5000000000000004e-01  0.0000000000000000e+00
1.5000000000000000e+00  5.9999999999999998e-01  0.0000000000000000e+00
1.5000000000000000e+00  6.5000000000000002e-01  0.0000000000000000e+00
1.5000000000000000e+00  6.9999999999999996e-01  0.0000000000000000e+00
1.5000000000000000e+00  7.5000000000000000e-01  0.0000000000000000e+00
1.5000000000000000e+00  8.0000000000000004e-01  0.0000000000000000e+00
1.5000000000000000e+00  8.4999999999999998e-01  0.0000000000000000e+00
1.5000000000000000e+00  9.0000000000000002e-01  0.0000000000000000e+00
1.5000000000000000e+00  9.4999999999999996e-01  0.0000000000000000e+00
1.5000000000000000e+00  1.0000000000000000e+00  0.0000000000000000e+00

CELLS 20 60

2 0 1 
2 1 2 
2 2 3 
2 3 4 
2 4 5 
2 5 6 
2 6 7 
2 7 8 
2 8 9 
2 9 10 
2 10 11 
2 11 12 
2 12 13 
2 13 14 
2 14 15 
2 15 16 
2 16 17 
2 17 18 
2 18 19 
2 19 20 

CELL_TYPES 20

3
3
3
3
3
3
3
3
3
3
3
3
3
3
3
3
3
3
3
3

POINT_DATA 21

VECTORS VertexNormals float

1.0000000000000000e+00 0.0000000000000000e+00 0
1.0000000000000000e+00 0.0000000000000000e+00 0
1.0000000000000000e+00 0.0000000000000000e+00 0
1.0000000000000000e+00 0.0000000000000000e+00 0
1.0000000000000000e+00 0.0000000000000000e+00 0
1.0000000000000000e+00 0.0000000000000000e+00 0
1.0000000000000000e+00 0.0000000000000000e+00 0
1.0000000000000000e+00 0.0000000000000000e+00 0
1.0000000000000000e+00 0.0000000000000000e+00 0
1.0000000000000000e+00 0.0000000000000000e+00 0
1.0000000000000000e+00 0.0000000000000000e+00 0
1.0000000000000000e+00 0.0000000000000000e+00 0
1.0000000000000000e+00 0.0000000000000000e+00 0
1.0000000000000000e+00 0.0000000000000000e+00 0
1.0000000000000000e+00 0.0000000000000000e+00 0
1.0000000000000000e+00 0.0000000000000000e+00 0
1.0000000000000000e+00 0.0000000000000000e+00 0
1.0000000000000000e+00 0.0000000000000000e+00 0
1.0000000000000000e+00 0.0000000000000000e+00 0
1.0000000000000000e+00 0.0000000000000000e+00 0
1.0000000000000000e+00 0.0000000000000000e+00 0

SCALARS Temperature float
LOOKUP_TABLE default
4.4199999999999999e+00
4.4275001445401019e+00
4.4500002747819778e+00
4.4875003723139004e+00
4.5400004551158837e+00
4.6075005408688625e+00
4.6900005752712222e+00
4.7875004941096018e+00
4.9000003074145102e+00
5.0275000073048162e+00
5.1699997367151997e+00
5.3274996407146951e+00
5.4999995953005207e+00
5.6874994898531197e+00
5.8899994406792020e+00
6.1074995778422689e+00
6.3399998458389826e+00
6.5875002050424749e+00
6.8500004480031240e+00
7.1275003398419381e+00
7.4200000000000008e+00

VECTORS Flux float
-5.0956533449278796e-01 -5.6229635667630481e-04 0
6.8949672428060738e-01 -8.1708455323319866e-04 0
1.8885587830540027e+00 -1.0718727497900924e-03 0
2.1566249366714323e+00 -1.2740241225198657e-03 0
2.4246910902888619e+00 -1.4761754952496390e-03 0
2.4621810574963110e+00 -1.6060386600558405e-03 0
2.4996710247037606e+00 -1.7359018248620421e-03 0
2.5190448952266085e+00 -1.7808797591783694e-03 0
2.5384187657494572e+00 -1.8258576934946967e-03 0
2.5427901486020970e+00 -1.7816028536330156e-03 0
2.5471615314547371e+00 -1.7373480137713344e-03 0
2.5429637338291600e+00 -1.6081444106332457e-03 0
2.5387659362035828e+00 -1.4789408074951571e-03 0
2.5215244045739160e+00 -1.2772959310389334e-03 0
2.5042828729442497e+00 -1.0756510545827098e-03 0
2.4609150764345920e+00 -8.2127067759732680e-04 0
2.4175472799249342e+00 -5.6689030061194377e-04 0
2.2730086728397643e+00 -2.8498260907847025e-04 0
2.1284700657545943e+00 -3.0749175449960918e-06 0
1.2633301098255956e+00 -6.7379541122736820e-07 0
3.9819015389659496e-01 1.7273267225413607e-06 0

