# vtk DataFile Version 2.0

ASCII

DATASET UNSTRUCTURED_GRID

POINTS 21 float 

1.5000000000000000e+00  0.0000000000000000e+00  0.0000000000000000e+00
1.5000000000000000e+00  5.0000000000000003e-02  0.0000000000000000e+00
1.5000000000000000e+00  1.0000000000000001e-01  0.0000000000000000e+00
1.5000000000000000e+00  1.4999999999999999e-01  0.0000000000000000e+00
1.5000000000000000e+00  2.0000000000000001e-01  0.0000000000000000e+00
1.5000000000000000e+00  2.5000000000000000e-01  0.0000000000000000e+00
1.5000000000000000e+00  2.9999999999999999e-01  0.0000000000000000e+00
1.5000000000000000e+00  3.4999999999999998e-01  0.0000000000000000e+00
1.5000000000000000e+00  4.0000000000000002e-01  0.0000000000000000e+00
1.5000000000000000e+00  4.5000000000000001e-01  0.0000000000000000e+00
1.5000000000000000e+00  5.0000000000000000e-01  0.0000000000000000e+00
1.5000000000000000e+00  5.5000000000000004e-01  0.0000000000000000e+00
1.5000000000000000e+00  5.9999999999999998e-01  0.0000000000000000e+00
1.5000000000000000e+00  6.5000000000000002e-01  0.0000000000000000e+00
1.5000000000000000e+00  6.9999999999999996e-01  0.0000000000000000e+00
1.5000000000000000e+00  7.5000000000000000e-01  0.0000000000000000e+00
1.5000000000000000e+00  8.0000000000000004e-01  0.0000000000000000e+00
1.5000000000000000e+00  8.4999999999999998e-01  0.0000000000000000e+00
1.5000000000000000e+00  9.0000000000000002e-01  0.0000000000000000e+00
1.5000000000000000e+00  9.4999999999999996e-01  0.0000000000000000e+00
1.5000000000000000e+00  1.0000000000000000e+00  0.0000000000000000e+00

CELLS 20 60

2 0 1 
2 1 2 
2 2 3 
2 3 4 
2 4 5 
2 5 6 
2 6 7 
2 7 8 
2 8 9 
2 9 10 
2 10 11 
2 11 12 
2 12 13 
2 13 14 
2 14 15 
2 15 16 
2 16 17 
2 17 18 
2 18 19 
2 19 20 

CELL_TYPES 20

3
3
3
3
3
3
3
3
3
3
3
3
3
3
3
3
3
3
3
3

POINT_DATA 21

VECTORS VertexNormals float

1.0000000000000000e+00 0.0000000000000000e+00 0
1.0000000000000000e+00 0.0000000000000000e+00 0
1.0000000000000000e+00 0.0000000000000000e+00 0
1.0000000000000000e+00 0.0000000000000000e+00 0
1.0000000000000000e+00 0.0000000000000000e+00 0
1.0000000000000000e+00 0.0000000000000000e+00 0
1.0000000000000000e+00 0.0000000000000000e+00 0
1.0000000000000000e+00 0.0000000000000000e+00 0
1.0000000000000000e+00 0.0000000000000000e+00 0
1.0000000000000000e+00 0.0000000000000000e+00 0
1.0000000000000000e+00 0.0000000000000000e+00 0
1.0000000000000000e+00 0.0000000000000000e+00 0
1.0000000000000000e+00 0.0000000000000000e+00 0
1.0000000000000000e+00 0.0000000000000000e+00 0
1.0000000000000000e+00 0.0000000000000000e+00 0
1.0000000000000000e+00 0.0000000000000000e+00 0
1.0000000000000000e+00 0.0000000000000000e+00 0
1.0000000000000000e+00 0.0000000000000000e+00 0
1.0000000000000000e+00 0.0000000000000000e+00 0
1.0000000000000000e+00 0.0000000000000000e+00 0
1.0000000000000000e+00 0.0000000000000000e+00 0

SCALARS Temperature float
LOOKUP_TABLE default
4.4199999999999999e+00
4.4275001445434663e+00
4.4500002747882661e+00
4.4875003723217874e+00
4.5400004551236792e+00
4.6075005408741783e+00
4.6900005752730465e+00
4.7875004941080839e+00
4.9000003074103420e+00
5.0275000072993565e+00
5.1699997367097517e+00
5.3274996407108253e+00
5.4999995952992879e+00
5.6874994898552993e+00
5.8899994406846599e+00
6.1074995778499428e+00
6.3399998458474887e+00
6.5875002050498495e+00
6.8500004480082852e+00
7.1275003398444934e+00
7.4200000000000008e+00

VECTORS Flux float
-5.0956533449636965e-01 -5.6229635673280291e-04 0
6.8949672430719411e-01 -8.1708455330994131e-04 0
1.8885587831107580e+00 -1.0718727498870797e-03 0
2.1566249367425576e+00 -1.2740241226336700e-03 0
2.4246910903743575e+00 -1.4761754953802608e-03 0
2.4621810575480145e+00 -1.6060386601797639e-03 0
2.4996710247216716e+00 -1.7359018249792667e-03 0
2.5190448952112146e+00 -1.7808797592936724e-03 0
2.5384187657007584e+00 -1.8258576936080783e-03 0
2.5427901485461408e+00 -1.7816028537575072e-03 0
2.5471615313915228e+00 -1.7373480139069363e-03 0
2.5429637337850832e+00 -1.6081444107561627e-03 0
2.5387659361786437e+00 -1.4789408076053892e-03 0
2.5215244045842038e+00 -1.2772959311367622e-03 0
2.5042828729897639e+00 -1.0756510546681354e-03 0
2.4609150764987406e+00 -8.2127067762873679e-04 0
2.4175472800077169e+00 -5.6689030058933816e-04 0
2.2730086729043877e+00 -2.8498260913269120e-04 0
2.1284700658010580e+00 -3.0749176760436084e-06 0
1.2633301098473360e+00 -6.7379547922310744e-07 0
3.9819015389361223e-01 1.7273267175973988e-06 0

