# vtk DataFile Version 2.0

ASCII

DATASET UNSTRUCTURED_GRID

POINTS 21 float 

1.5000000000000000e+00  0.0000000000000000e+00  0.0000000000000000e+00
1.5000000000000000e+00  5.0000000000000003e-02  0.0000000000000000e+00
1.5000000000000000e+00  1.0000000000000001e-01  0.0000000000000000e+00
1.5000000000000000e+00  1.4999999999999999e-01  0.0000000000000000e+00
1.5000000000000000e+00  2.0000000000000001e-01  0.0000000000000000e+00
1.5000000000000000e+00  2.5000000000000000e-01  0.0000000000000000e+00
1.5000000000000000e+00  2.9999999999999999e-01  0.0000000000000000e+00
1.5000000000000000e+00  3.4999999999999998e-01  0.0000000000000000e+00
1.5000000000000000e+00  4.0000000000000002e-01  0.0000000000000000e+00
1.5000000000000000e+00  4.5000000000000001e-01  0.0000000000000000e+00
1.5000000000000000e+00  5.0000000000000000e-01  0.0000000000000000e+00
1.5000000000000000e+00  5.5000000000000004e-01  0.0000000000000000e+00
1.5000000000000000e+00  5.9999999999999998e-01  0.0000000000000000e+00
1.5000000000000000e+00  6.5000000000000002e-01  0.0000000000000000e+00
1.5000000000000000e+00  6.9999999999999996e-01  0.0000000000000000e+00
1.5000000000000000e+00  7.5000000000000000e-01  0.0000000000000000e+00
1.5000000000000000e+00  8.0000000000000004e-01  0.0000000000000000e+00
1.5000000000000000e+00  8.4999999999999998e-01  0.0000000000000000e+00
1.5000000000000000e+00  9.0000000000000002e-01  0.0000000000000000e+00
1.5000000000000000e+00  9.4999999999999996e-01  0.0000000000000000e+00
1.5000000000000000e+00  1.0000000000000000e+00  0.0000000000000000e+00

CELLS 20 60

2 0 1 
2 1 2 
2 2 3 
2 3 4 
2 4 5 
2 5 6 
2 6 7 
2 7 8 
2 8 9 
2 9 10 
2 10 11 
2 11 12 
2 12 13 
2 13 14 
2 14 15 
2 15 16 
2 16 17 
2 17 18 
2 18 19 
2 19 20 

CELL_TYPES 20

3
3
3
3
3
3
3
3
3
3
3
3
3
3
3
3
3
3
3
3

POINT_DATA 21

VECTORS VertexNormals float

1.0000000000000000e+00 0.0000000000000000e+00 0
1.0000000000000000e+00 0.0000000000000000e+00 0
1.0000000000000000e+00 0.0000000000000000e+00 0
1.0000000000000000e+00 0.0000000000000000e+00 0
1.0000000000000000e+00 0.0000000000000000e+00 0
1.0000000000000000e+00 0.0000000000000000e+00 0
1.0000000000000000e+00 0.0000000000000000e+00 0
1.0000000000000000e+00 0.0000000000000000e+00 0
1.0000000000000000e+00 0.0000000000000000e+00 0
1.0000000000000000e+00 0.0000000000000000e+00 0
1.0000000000000000e+00 0.0000000000000000e+00 0
1.0000000000000000e+00 0.0000000000000000e+00 0
1.0000000000000000e+00 0.0000000000000000e+00 0
1.0000000000000000e+00 0.0000000000000000e+00 0
1.0000000000000000e+00 0.0000000000000000e+00 0
1.0000000000000000e+00 0.0000000000000000e+00 0
1.0000000000000000e+00 0.0000000000000000e+00 0
1.0000000000000000e+00 0.0000000000000000e+00 0
1.0000000000000000e+00 0.0000000000000000e+00 0
1.0000000000000000e+00 0.0000000000000000e+00 0
1.0000000000000000e+00 0.0000000000000000e+00 0

SCALARS Temperature float
LOOKUP_TABLE default
3.5099999999999998e+00
3.5174999916742387e+00
3.5400000542204069e+00
3.5775002505059752e+00
3.6300004491114159e+00
3.6975005207448790e+00
3.7800004872567556e+00
3.8775003544744182e+00
3.9900002427130787e+00
4.1175002750060177e+00
4.2600003872168779e+00
4.4175005310094200e+00
4.5900006184029891e+00
4.7775005498921486e+00
4.9800004020019761e+00
5.1975002323837085e+00
5.4300000752771567e+00
5.6774999692890704e+00
5.9399999178351521e+00
6.2174999385385634e+00
6.5099999999999980e+00

VECTORS Flux float
-5.0956537098653532e-01 -4.8980080468258580e-01 0
6.8949517129878612e-01 -3.7165285665425513e-02 0
1.8885557135841076e+00 4.1547023335173477e-01 0
2.1566236054773098e+00 8.0858461010564631e-01 0
2.4246914973705125e+00 1.2016989868595580e+00 0
2.4621809148114266e+00 1.5038606866033588e+00 0
2.4996703322523404e+00 1.8060223863471596e+00 0
2.5190425272977954e+00 2.1034578963851542e+00 0
2.5384147223432509e+00 2.4008934064231493e+00 0
2.5427901644672133e+00 2.7011914670551649e+00 0
2.5471656065911756e+00 3.0014895276871805e+00 0
2.5429699192862483e+00 3.3016785586598418e+00 0
2.5387742319813213e+00 3.6018675896325032e+00 0
2.5215328247997046e+00 3.9024989669962142e+00 0
2.5042914176180875e+00 4.2031303443599253e+00 0
2.4609202848178398e+00 4.5170176542139933e+00 0
2.4175491520175920e+00 4.8309049640680612e+00 0
2.2730050799656203e+00 5.0987172407619550e+00 0
2.1284610079136481e+00 5.3665295174558496e+00 0
1.2633246104019067e+00 6.2167999764169553e+00 0
3.9818821289016371e-01 7.0670704353780627e+00 0

