# vtk DataFile Version 2.0

ASCII

DATASET UNSTRUCTURED_GRID

POINTS 21 float 

1.5000000000000000e+00  0.0000000000000000e+00  0.0000000000000000e+00
1.5000000000000000e+00  5.0000000000000003e-02  0.0000000000000000e+00
1.5000000000000000e+00  1.0000000000000001e-01  0.0000000000000000e+00
1.5000000000000000e+00  1.4999999999999999e-01  0.0000000000000000e+00
1.5000000000000000e+00  2.0000000000000001e-01  0.0000000000000000e+00
1.5000000000000000e+00  2.5000000000000000e-01  0.0000000000000000e+00
1.5000000000000000e+00  2.9999999999999999e-01  0.0000000000000000e+00
1.5000000000000000e+00  3.4999999999999998e-01  0.0000000000000000e+00
1.5000000000000000e+00  4.0000000000000002e-01  0.0000000000000000e+00
1.5000000000000000e+00  4.5000000000000001e-01  0.0000000000000000e+00
1.5000000000000000e+00  5.0000000000000000e-01  0.0000000000000000e+00
1.5000000000000000e+00  5.5000000000000004e-01  0.0000000000000000e+00
1.5000000000000000e+00  5.9999999999999998e-01  0.0000000000000000e+00
1.5000000000000000e+00  6.5000000000000002e-01  0.0000000000000000e+00
1.5000000000000000e+00  6.9999999999999996e-01  0.0000000000000000e+00
1.5000000000000000e+00  7.5000000000000000e-01  0.0000000000000000e+00
1.5000000000000000e+00  8.0000000000000004e-01  0.0000000000000000e+00
1.5000000000000000e+00  8.4999999999999998e-01  0.0000000000000000e+00
1.5000000000000000e+00  9.0000000000000002e-01  0.0000000000000000e+00
1.5000000000000000e+00  9.4999999999999996e-01  0.0000000000000000e+00
1.5000000000000000e+00  1.0000000000000000e+00  0.0000000000000000e+00

CELLS 20 60

2 0 1 
2 1 2 
2 2 3 
2 3 4 
2 4 5 
2 5 6 
2 6 7 
2 7 8 
2 8 9 
2 9 10 
2 10 11 
2 11 12 
2 12 13 
2 13 14 
2 14 15 
2 15 16 
2 16 17 
2 17 18 
2 18 19 
2 19 20 

CELL_TYPES 20

3
3
3
3
3
3
3
3
3
3
3
3
3
3
3
3
3
3
3
3

POINT_DATA 21

VECTORS VertexNormals float

1.0000000000000000e+00 0.0000000000000000e+00 0
1.0000000000000000e+00 0.0000000000000000e+00 0
1.0000000000000000e+00 0.0000000000000000e+00 0
1.0000000000000000e+00 0.0000000000000000e+00 0
1.0000000000000000e+00 0.0000000000000000e+00 0
1.0000000000000000e+00 0.0000000000000000e+00 0
1.0000000000000000e+00 0.0000000000000000e+00 0
1.0000000000000000e+00 0.0000000000000000e+00 0
1.0000000000000000e+00 0.0000000000000000e+00 0
1.0000000000000000e+00 0.0000000000000000e+00 0
1.0000000000000000e+00 0.0000000000000000e+00 0
1.0000000000000000e+00 0.0000000000000000e+00 0
1.0000000000000000e+00 0.0000000000000000e+00 0
1.0000000000000000e+00 0.0000000000000000e+00 0
1.0000000000000000e+00 0.0000000000000000e+00 0
1.0000000000000000e+00 0.0000000000000000e+00 0
1.0000000000000000e+00 0.0000000000000000e+00 0
1.0000000000000000e+00 0.0000000000000000e+00 0
1.0000000000000000e+00 0.0000000000000000e+00 0
1.0000000000000000e+00 0.0000000000000000e+00 0
1.0000000000000000e+00 0.0000000000000000e+00 0

SCALARS Temperature float
LOOKUP_TABLE default
4.0300000000000002e+00
4.0374996652462301e+00
4.0599993826925678e+00
4.0974992351641193e+00
4.1499992177619642e+00
4.2174993532097194e+00
4.2999996447786097e+00
4.3975001239124785e+00
4.5100005318938496e+00
4.6375005970785503e+00
4.7800004556565847e+00
4.9375002058914967e+00
5.1100000167553468e+00
5.2975000645101220e+00
5.5000002925599185e+00
5.7175006802695361e+00
5.9500009820176976e+00
6.1975009395494904e+00
6.4600006927825309e+00
6.7375003451121804e+00
7.0300000000000002e+00

VECTORS Flux float
-5.0956489848528375e-01 -5.6229785404382558e-04 0
6.8949330311017576e-01 -8.1708673767386043e-04 0
1.8885515047056354e+00 -1.0718756213038954e-03 0
2.1566158253701899e+00 -1.2740275580867782e-03 0
2.4246801460347442e+00 -1.4761794948696615e-03 0
2.4621708123206707e+00 -1.6060430457203283e-03 0
2.4996614786065972e+00 -1.7359065965709948e-03 0
2.5190417337151052e+00 -1.7808846946280811e-03 0
2.5384219888236141e+00 -1.8258627926851677e-03 0
2.5427960741130899e+00 -1.7816078673146187e-03 0
2.5471701594025653e+00 -1.7373529419440698e-03 0
2.5429679743122033e+00 -1.6081490010407160e-03 0
2.5387657892218414e+00 -1.4789450601373625e-03 0
2.5215264138967468e+00 -1.2772996201777314e-03 0
2.5042870385716527e+00 -1.0756541802181007e-03 0
2.4609231375931264e+00 -8.2127306713264999e-04 0
2.4175592366146006e+00 -5.6689195404719924e-04 0
2.2730147166902515e+00 -2.8498343866658287e-04 0
2.1284701967659019e+00 -3.0749232859658362e-06 0
1.2633290929480074e+00 -6.7379834734983990e-07 0
3.9818798913011122e-01 1.7273265912661616e-06 0

