# vtk DataFile Version 2.0

ASCII

DATASET UNSTRUCTURED_GRID

POINTS 21 float 

1.5000000000000000e+00  0.0000000000000000e+00  0.0000000000000000e+00
1.5000000000000000e+00  5.0000000000000003e-02  0.0000000000000000e+00
1.5000000000000000e+00  1.0000000000000001e-01  0.0000000000000000e+00
1.5000000000000000e+00  1.4999999999999999e-01  0.0000000000000000e+00
1.5000000000000000e+00  2.0000000000000001e-01  0.0000000000000000e+00
1.5000000000000000e+00  2.5000000000000000e-01  0.0000000000000000e+00
1.5000000000000000e+00  2.9999999999999999e-01  0.0000000000000000e+00
1.5000000000000000e+00  3.4999999999999998e-01  0.0000000000000000e+00
1.5000000000000000e+00  4.0000000000000002e-01  0.0000000000000000e+00
1.5000000000000000e+00  4.5000000000000001e-01  0.0000000000000000e+00
1.5000000000000000e+00  5.0000000000000000e-01  0.0000000000000000e+00
1.5000000000000000e+00  5.5000000000000004e-01  0.0000000000000000e+00
1.5000000000000000e+00  5.9999999999999998e-01  0.0000000000000000e+00
1.5000000000000000e+00  6.5000000000000002e-01  0.0000000000000000e+00
1.5000000000000000e+00  6.9999999999999996e-01  0.0000000000000000e+00
1.5000000000000000e+00  7.5000000000000000e-01  0.0000000000000000e+00
1.5000000000000000e+00  8.0000000000000004e-01  0.0000000000000000e+00
1.5000000000000000e+00  8.4999999999999998e-01  0.0000000000000000e+00
1.5000000000000000e+00  9.0000000000000002e-01  0.0000000000000000e+00
1.5000000000000000e+00  9.4999999999999996e-01  0.0000000000000000e+00
1.5000000000000000e+00  1.0000000000000000e+00  0.0000000000000000e+00

CELLS 20 60

2 0 1 
2 1 2 
2 2 3 
2 3 4 
2 4 5 
2 5 6 
2 6 7 
2 7 8 
2 8 9 
2 9 10 
2 10 11 
2 11 12 
2 12 13 
2 13 14 
2 14 15 
2 15 16 
2 16 17 
2 17 18 
2 18 19 
2 19 20 

CELL_TYPES 20

3
3
3
3
3
3
3
3
3
3
3
3
3
3
3
3
3
3
3
3

POINT_DATA 21

VECTORS VertexNormals float

1.0000000000000000e+00 0.0000000000000000e+00 0
1.0000000000000000e+00 0.0000000000000000e+00 0
1.0000000000000000e+00 0.0000000000000000e+00 0
1.0000000000000000e+00 0.0000000000000000e+00 0
1.0000000000000000e+00 0.0000000000000000e+00 0
1.0000000000000000e+00 0.0000000000000000e+00 0
1.0000000000000000e+00 0.0000000000000000e+00 0
1.0000000000000000e+00 0.0000000000000000e+00 0
1.0000000000000000e+00 0.0000000000000000e+00 0
1.0000000000000000e+00 0.0000000000000000e+00 0
1.0000000000000000e+00 0.0000000000000000e+00 0
1.0000000000000000e+00 0.0000000000000000e+00 0
1.0000000000000000e+00 0.0000000000000000e+00 0
1.0000000000000000e+00 0.0000000000000000e+00 0
1.0000000000000000e+00 0.0000000000000000e+00 0
1.0000000000000000e+00 0.0000000000000000e+00 0
1.0000000000000000e+00 0.0000000000000000e+00 0
1.0000000000000000e+00 0.0000000000000000e+00 0
1.0000000000000000e+00 0.0000000000000000e+00 0
1.0000000000000000e+00 0.0000000000000000e+00 0
1.0000000000000000e+00 0.0000000000000000e+00 0

SCALARS Temperature float
LOOKUP_TABLE default
3.6400000000000001e+00
3.6475000214504192e+00
3.6700000395515442e+00
3.7075000446440298e+00
3.7600000278459476e+00
3.8274999759777995e+00
3.9099999161064489e+00
4.0074998767122700e+00
4.1199998783634664e+00
4.2474999482972047e+00
4.3900000040311520e+00
4.5474999591216410e+00
4.7199998818075128e+00
4.9074998375363856e+00
5.1099998651045047e+00
5.3275000155872263e+00
5.5600001328376951e+00
5.8075000554034562e+00
6.0699999337297372e+00
6.3474999132721406e+00
6.6399999999999997e+00

VECTORS Flux float
-5.0956528135024592e-01 -5.6229754340746075e-04 0
6.8949606829857446e-01 -8.1708628416196692e-04 0
1.8885574179473950e+00 -1.0718750249164731e-03 0
2.1566230984833732e+00 -1.2740268422320794e-03 0
2.4246887790193514e+00 -1.4761786595476861e-03 0
2.4621770946169574e+00 -1.6060421258580647e-03 0
2.4996654102145639e+00 -1.7359055921684430e-03 0
2.5190395868963282e+00 -1.7808836509527670e-03 0
2.5384137635780926e+00 -1.8258617097370912e-03 0
2.5427897177368521e+00 -1.7816067978163866e-03 0
2.5471656718956117e+00 -1.7373518858956822e-03 0
2.5429670008229337e+00 -1.6081480138227533e-03 0
2.5387683297502561e+00 -1.4789441417498246e-03 0
2.5215272339839809e+00 -1.2772988214846297e-03 0
2.5042861382177057e+00 -1.0756535012194353e-03 0
2.4609191756472457e+00 -8.2127254820107780e-04 0
2.4175522130767861e+00 -5.6689159518272031e-04 0
2.2730071960842864e+00 -2.8498325915595016e-04 0
2.1284621790917861e+00 -3.0749231291793706e-06 0
1.2633248099130867e+00 -6.7379734394783962e-07 0
3.9818744073438572e-01 1.7273284412836966e-06 0

