# vtk DataFile Version 2.0

ASCII

DATASET UNSTRUCTURED_GRID

POINTS 21 float 

1.5000000000000000e+00  0.0000000000000000e+00  0.0000000000000000e+00
1.5000000000000000e+00  5.0000000000000003e-02  0.0000000000000000e+00
1.5000000000000000e+00  1.0000000000000001e-01  0.0000000000000000e+00
1.5000000000000000e+00  1.4999999999999999e-01  0.0000000000000000e+00
1.5000000000000000e+00  2.0000000000000001e-01  0.0000000000000000e+00
1.5000000000000000e+00  2.5000000000000000e-01  0.0000000000000000e+00
1.5000000000000000e+00  2.9999999999999999e-01  0.0000000000000000e+00
1.5000000000000000e+00  3.4999999999999998e-01  0.0000000000000000e+00
1.5000000000000000e+00  4.0000000000000002e-01  0.0000000000000000e+00
1.5000000000000000e+00  4.5000000000000001e-01  0.0000000000000000e+00
1.5000000000000000e+00  5.0000000000000000e-01  0.0000000000000000e+00
1.5000000000000000e+00  5.5000000000000004e-01  0.0000000000000000e+00
1.5000000000000000e+00  5.9999999999999998e-01  0.0000000000000000e+00
1.5000000000000000e+00  6.5000000000000002e-01  0.0000000000000000e+00
1.5000000000000000e+00  6.9999999999999996e-01  0.0000000000000000e+00
1.5000000000000000e+00  7.5000000000000000e-01  0.0000000000000000e+00
1.5000000000000000e+00  8.0000000000000004e-01  0.0000000000000000e+00
1.5000000000000000e+00  8.4999999999999998e-01  0.0000000000000000e+00
1.5000000000000000e+00  9.0000000000000002e-01  0.0000000000000000e+00
1.5000000000000000e+00  9.4999999999999996e-01  0.0000000000000000e+00
1.5000000000000000e+00  1.0000000000000000e+00  0.0000000000000000e+00

CELLS 20 60

2 0 1 
2 1 2 
2 2 3 
2 3 4 
2 4 5 
2 5 6 
2 6 7 
2 7 8 
2 8 9 
2 9 10 
2 10 11 
2 11 12 
2 12 13 
2 13 14 
2 14 15 
2 15 16 
2 16 17 
2 17 18 
2 18 19 
2 19 20 

CELL_TYPES 20

3
3
3
3
3
3
3
3
3
3
3
3
3
3
3
3
3
3
3
3

POINT_DATA 21

VECTORS VertexNormals float

1.0000000000000000e+00 0.0000000000000000e+00 0
1.0000000000000000e+00 0.0000000000000000e+00 0
1.0000000000000000e+00 0.0000000000000000e+00 0
1.0000000000000000e+00 0.0000000000000000e+00 0
1.0000000000000000e+00 0.0000000000000000e+00 0
1.0000000000000000e+00 0.0000000000000000e+00 0
1.0000000000000000e+00 0.0000000000000000e+00 0
1.0000000000000000e+00 0.0000000000000000e+00 0
1.0000000000000000e+00 0.0000000000000000e+00 0
1.0000000000000000e+00 0.0000000000000000e+00 0
1.0000000000000000e+00 0.0000000000000000e+00 0
1.0000000000000000e+00 0.0000000000000000e+00 0
1.0000000000000000e+00 0.0000000000000000e+00 0
1.0000000000000000e+00 0.0000000000000000e+00 0
1.0000000000000000e+00 0.0000000000000000e+00 0
1.0000000000000000e+00 0.0000000000000000e+00 0
1.0000000000000000e+00 0.0000000000000000e+00 0
1.0000000000000000e+00 0.0000000000000000e+00 0
1.0000000000000000e+00 0.0000000000000000e+00 0
1.0000000000000000e+00 0.0000000000000000e+00 0
1.0000000000000000e+00 0.0000000000000000e+00 0

SCALARS Temperature float
LOOKUP_TABLE default
4.1600000000000001e+00
4.1674999844963265e+00
4.1899999652220430e+00
4.2274999381282115e+00
4.2799999135802231e+00
4.3474998998892378e+00
4.4299999154045029e+00
4.5274999795192423e+00
4.6400000245483204e+00
4.7674999805990366e+00
4.9099999287149441e+00
5.0674999532760276e+00
5.2400000326943053e+00
5.4275001534059539e+00
5.6300002449723969e+00
5.8475002309963768e+00
6.0800001960892596e+00
6.3275002224191086e+00
6.5900002344856432e+00
6.8675001549865184e+00
7.1600000000000010e+00

VECTORS Flux float
-5.0956519545909928e-01 -5.6229795966621489e-04 0
6.8949581481448607e-01 -8.1708689905695417e-04 0
1.8885568250880715e+00 -1.0718758384476933e-03 0
2.1566220815180621e+00 -1.2740278335764332e-03 0
2.4246873379480527e+00 -1.4761798287051735e-03 0
2.4621761831895848e+00 -1.6060434345879339e-03 0
2.4996650284311164e+00 -1.7359070404706946e-03 0
2.5190405572430286e+00 -1.7808851795865993e-03 0
2.5384160860549412e+00 -1.8258633187025043e-03 0
2.5427899037905703e+00 -1.7816084083589364e-03 0
2.5471637215261991e+00 -1.7373534980153684e-03 0
2.5429660273964583e+00 -1.6081495368176360e-03 0
2.5387683332667170e+00 -1.4789455756199039e-03 0
2.5215295740024168e+00 -1.2773000773770721e-03 0
2.5042908147381167e+00 -1.0756545791342409e-03 0
2.4609208411170300e+00 -8.2127337557096026e-04 0
2.4175508674959429e+00 -5.6689217200767963e-04 0
2.2730080527301406e+00 -2.8498354837453685e-04 0
2.1284652379643378e+00 -3.0749247413934115e-06 0
1.2633270720118883e+00 -6.7379907359995464e-07 0
3.9818890605943719e-01 1.7273265941935075e-06 0

