# vtk DataFile Version 2.0

ASCII

DATASET UNSTRUCTURED_GRID

POINTS 21 float 

1.0000000000000000e+00  0.0000000000000000e+00  0.0000000000000000e+00
1.0000000000000000e+00  5.0000000000000003e-02  0.0000000000000000e+00
1.0000000000000000e+00  1.0000000000000001e-01  0.0000000000000000e+00
1.0000000000000000e+00  1.4999999999999999e-01  0.0000000000000000e+00
1.0000000000000000e+00  2.0000000000000001e-01  0.0000000000000000e+00
1.0000000000000000e+00  2.5000000000000000e-01  0.0000000000000000e+00
1.0000000000000000e+00  2.9999999999999999e-01  0.0000000000000000e+00
1.0000000000000000e+00  3.4999999999999998e-01  0.0000000000000000e+00
1.0000000000000000e+00  4.0000000000000002e-01  0.0000000000000000e+00
1.0000000000000000e+00  4.5000000000000001e-01  0.0000000000000000e+00
1.0000000000000000e+00  5.0000000000000000e-01  0.0000000000000000e+00
1.0000000000000000e+00  5.5000000000000004e-01  0.0000000000000000e+00
1.0000000000000000e+00  5.9999999999999998e-01  0.0000000000000000e+00
1.0000000000000000e+00  6.5000000000000002e-01  0.0000000000000000e+00
1.0000000000000000e+00  6.9999999999999996e-01  0.0000000000000000e+00
1.0000000000000000e+00  7.5000000000000000e-01  0.0000000000000000e+00
1.0000000000000000e+00  8.0000000000000004e-01  0.0000000000000000e+00
1.0000000000000000e+00  8.4999999999999998e-01  0.0000000000000000e+00
1.0000000000000000e+00  9.0000000000000002e-01  0.0000000000000000e+00
1.0000000000000000e+00  9.4999999999999996e-01  0.0000000000000000e+00
1.0000000000000000e+00  1.0000000000000000e+00  0.0000000000000000e+00

CELLS 0 0


CELL_TYPES 0


POINT_DATA 21

VECTORS VertexNormals float

0.0000000000000000e+00 0.0000000000000000e+00 0
0.0000000000000000e+00 0.0000000000000000e+00 0
0.0000000000000000e+00 0.0000000000000000e+00 0
0.0000000000000000e+00 0.0000000000000000e+00 0
0.0000000000000000e+00 0.0000000000000000e+00 0
0.0000000000000000e+00 0.0000000000000000e+00 0
0.0000000000000000e+00 0.0000000000000000e+00 0
0.0000000000000000e+00 0.0000000000000000e+00 0
0.0000000000000000e+00 0.0000000000000000e+00 0
0.0000000000000000e+00 0.0000000000000000e+00 0
0.0000000000000000e+00 0.0000000000000000e+00 0
0.0000000000000000e+00 0.0000000000000000e+00 0
0.0000000000000000e+00 0.0000000000000000e+00 0
0.0000000000000000e+00 0.0000000000000000e+00 0
0.0000000000000000e+00 0.0000000000000000e+00 0
0.0000000000000000e+00 0.0000000000000000e+00 0
0.0000000000000000e+00 0.0000000000000000e+00 0
0.0000000000000000e+00 0.0000000000000000e+00 0
0.0000000000000000e+00 0.0000000000000000e+00 0
0.0000000000000000e+00 0.0000000000000000e+00 0
0.0000000000000000e+00 0.0000000000000000e+00 0

SCALARS Temperature float
LOOKUP_TABLE default
2.7800000000000002e+00
2.7875000000010868e+00
2.8100000000022658e+00
2.8475000000035582e+00
2.9000000000048609e+00
2.9675000000060212e+00
3.0500000000069156e+00
3.1475000000074980e+00
3.2600000000078735e+00
3.3875000000081408e+00
3.5300000000082905e+00
3.6875000000082601e+00
3.8600000000080006e+00
4.0475000000075072e+00
4.2500000000068257e+00
4.4675000000060008e+00
4.7000000000049909e+00
4.9475000000037781e+00
5.2100000000024762e+00
5.4875000000012104e+00
5.7800000000000002e+00

SCALARS Flux float
LOOKUP_TABLE default
-3.0745940858815612e+00
-9.2531665273802655e-01
9.4664902807002749e-01
1.4859034531570117e+00
1.4747830698086490e+00
1.4860763085727779e+00
1.4926136916833992e+00
1.5194031493964695e+00
1.5388625511385849e+00
1.5475790652384780e+00
1.5457099746238447e+00
1.5445493445523910e+00
1.5377606870528628e+00
1.5309451189628411e+00
1.5039059613725203e+00
1.4463017562659266e+00
1.4119372234736494e+00
1.5029401852159818e+00
1.2215279567526789e+00
-7.2910304858299302e-02
-1.5734606607000083e+00

