# vtk DataFile Version 2.0

ASCII

DATASET UNSTRUCTURED_GRID

POINTS 21 float 

1.0000000000000000e+00  0.0000000000000000e+00  0.0000000000000000e+00
1.0000000000000000e+00  5.0000000000000003e-02  0.0000000000000000e+00
1.0000000000000000e+00  1.0000000000000001e-01  0.0000000000000000e+00
1.0000000000000000e+00  1.4999999999999999e-01  0.0000000000000000e+00
1.0000000000000000e+00  2.0000000000000001e-01  0.0000000000000000e+00
1.0000000000000000e+00  2.5000000000000000e-01  0.0000000000000000e+00
1.0000000000000000e+00  2.9999999999999999e-01  0.0000000000000000e+00
1.0000000000000000e+00  3.4999999999999998e-01  0.0000000000000000e+00
1.0000000000000000e+00  4.0000000000000002e-01  0.0000000000000000e+00
1.0000000000000000e+00  4.5000000000000001e-01  0.0000000000000000e+00
1.0000000000000000e+00  5.0000000000000000e-01  0.0000000000000000e+00
1.0000000000000000e+00  5.5000000000000004e-01  0.0000000000000000e+00
1.0000000000000000e+00  5.9999999999999998e-01  0.0000000000000000e+00
1.0000000000000000e+00  6.5000000000000002e-01  0.0000000000000000e+00
1.0000000000000000e+00  6.9999999999999996e-01  0.0000000000000000e+00
1.0000000000000000e+00  7.5000000000000000e-01  0.0000000000000000e+00
1.0000000000000000e+00  8.0000000000000004e-01  0.0000000000000000e+00
1.0000000000000000e+00  8.4999999999999998e-01  0.0000000000000000e+00
1.0000000000000000e+00  9.0000000000000002e-01  0.0000000000000000e+00
1.0000000000000000e+00  9.4999999999999996e-01  0.0000000000000000e+00
1.0000000000000000e+00  1.0000000000000000e+00  0.0000000000000000e+00

CELLS 0 0


CELL_TYPES 0


POINT_DATA 21

VECTORS VertexNormals float

0.0000000000000000e+00 0.0000000000000000e+00 0
0.0000000000000000e+00 0.0000000000000000e+00 0
0.0000000000000000e+00 0.0000000000000000e+00 0
0.0000000000000000e+00 0.0000000000000000e+00 0
0.0000000000000000e+00 0.0000000000000000e+00 0
0.0000000000000000e+00 0.0000000000000000e+00 0
0.0000000000000000e+00 0.0000000000000000e+00 0
0.0000000000000000e+00 0.0000000000000000e+00 0
0.0000000000000000e+00 0.0000000000000000e+00 0
0.0000000000000000e+00 0.0000000000000000e+00 0
0.0000000000000000e+00 0.0000000000000000e+00 0
0.0000000000000000e+00 0.0000000000000000e+00 0
0.0000000000000000e+00 0.0000000000000000e+00 0
0.0000000000000000e+00 0.0000000000000000e+00 0
0.0000000000000000e+00 0.0000000000000000e+00 0
0.0000000000000000e+00 0.0000000000000000e+00 0
0.0000000000000000e+00 0.0000000000000000e+00 0
0.0000000000000000e+00 0.0000000000000000e+00 0
0.0000000000000000e+00 0.0000000000000000e+00 0
0.0000000000000000e+00 0.0000000000000000e+00 0
0.0000000000000000e+00 0.0000000000000000e+00 0

SCALARS Temperature float
LOOKUP_TABLE default
3.2999999999999998e+00
3.3075000000000578e+00
3.3300000000001133e+00
3.3675000000001694e+00
3.4200000000002184e+00
3.4875000000002530e+00
3.5700000000002778e+00
3.6675000000002962e+00
3.7800000000003244e+00
3.9075000000003564e+00
4.0500000000003746e+00
4.2075000000003628e+00
4.3800000000003365e+00
4.5675000000003179e+00
4.7700000000002971e+00
4.9875000000002663e+00
5.2200000000002209e+00
5.4675000000001690e+00
5.7300000000001186e+00
6.0075000000000722e+00
6.2999999999999998e+00

SCALARS Flux float
LOOKUP_TABLE default
2.0000000000000888e+00
2.0000000000001696e+00
2.0000000000002012e+00
2.0000000000000644e+00
1.9999999999999281e+00
1.9999999999999627e+00
2.0000000000001243e+00
2.0000000000004325e+00
2.0000000000005298e+00
1.9999999999999520e+00
1.9999999999995270e+00
2.0000000000001594e+00
2.0000000000008287e+00
2.0000000000005334e+00
2.0000000000000426e+00
2.0000000000000351e+00
2.0000000000002287e+00
2.0000000000004530e+00
2.0000000000005147e+00
2.0000000000001497e+00
1.9999999999996743e+00

