/*--------------------------------*- C++ -*----------------------------------*\
| =========                 |                                                 |
| \\      /  F ield         | OpenFOAM: The Open Source CFD Toolbox           |
|  \\    /   O peration     | Version:  2006                                  |
|   \\  /    A nd           | Website:  www.openfoam.com                      |
|    \\/     M anipulation  |                                                 |
\*---------------------------------------------------------------------------*/
FoamFile
{
    version     2.0;
    format      ascii;
    class       surfaceScalarField;
    location    "5.1";
    object      phi;
}
// * * * * * * * * * * * * * * * * * * * * * * * * * * * * * * * * * * * * * //

dimensions      [0 3 -1 0 0 0 0];
oriented        oriented;


internalField   nonuniform List<scalar> 
5457
(
0.198418
0.00158237
0.19648
0.00193734
0.194192
0.00228805
0.191509
0.00268353
0.188428
0.00308113
0.184951
0.00347669
0.181072
0.00387849
0.176778
0.00429391
0.17205
0.00472811
0.166865
0.0051851
0.161197
0.00566838
0.155016
0.00618089
0.148291
0.00672482
0.14099
0.00730119
0.133081
0.00790934
0.124534
0.00854629
0.115329
0.00920574
0.105452
0.00987703
0.0949077
0.0105439
0.0837242
0.0111834
0.0719597
0.0117645
0.0597114
0.0122483
0.0471227
0.0125887
0.0343825
0.0127402
0.0216873
0.0126951
0.00903709
0.0126502
-0.00291655
0.0119536
-0.00847234
0.00555579
-0.00804311
-0.00042923
-0.00804311
0.199928
0.0016542
0.199176
0.00268976
0.197965
0.00349895
0.196332
0.00431666
0.194272
0.00514113
0.191782
0.00596669
0.188855
0.00680539
0.185478
0.00767069
0.181633
0.00857292
0.177298
0.00952039
0.172446
0.0105204
0.167048
0.0115791
0.161071
0.0127014
0.154482
0.01389
0.147247
0.0151443
0.139334
0.0164593
0.130717
0.0178235
0.121377
0.019217
0.111312
0.0206086
0.100542
0.0219532
0.0891178
0.0231889
0.0771302
0.0242359
0.0647242
0.0249947
0.0521166
0.0253478
0.0396562
0.0251556
0.028106
0.0242005
0.0185953
0.0214643
0.00879742
0.0153537
0.00118361
0.00718459
-0.0068595
0.199781
0.00187363
0.199087
0.00338358
0.197946
0.00463984
0.196409
0.00585323
0.194483
0.00706721
0.192164
0.00828568
0.189447
0.00952275
0.186321
0.0107961
0.182774
0.0121207
0.178785
0.0135092
0.174333
0.0149724
0.169392
0.01652
0.163933
0.0181599
0.157926
0.019897
0.151338
0.0217324
0.144137
0.0236609
0.136291
0.0256689
0.127778
0.0277308
0.118581
0.0298054
0.108703
0.031831
0.0981712
0.0337207
0.0870489
0.0353581
0.0754522
0.0365914
0.063575
0.037225
0.051733
0.0369975
0.0403976
0.0355359
0.0297393
0.0321227
0.0191662
0.0259267
0.00959774
0.0167531
0.00273824
0.199703
0.00217055
0.199008
0.00407887
0.197887
0.00576034
0.196376
0.00736411
0.194488
0.00895527
0.192222
0.0105516
0.189575
0.0121704
0.186539
0.013832
0.183105
0.0155551
0.179258
0.0173556
0.174983
0.0192473
0.170261
0.0212426
0.165069
0.0233515
0.159385
0.0255811
0.153183
0.027934
0.146438
0.0304059
0.139124
0.0329831
0.131217
0.035638
0.122698
0.0383245
0.113557
0.0409718
0.1038
0.0434776
0.0934576
0.0457007
0.0825963
0.0474527
0.0713335
0.0484878
0.0598414
0.0484896
0.0483173
0.04706
0.0368112
0.0436287
0.025188
0.0375499
0.0133356
0.0286055
0.0160739
0.199667
0.00250313
0.198964
0.00478211
0.197863
0.00686163
0.196381
0.00884575
0.194533
0.010804
0.192318
0.0127662
0.189734
0.0147541
0.186776
0.0167905
0.183434
0.0188967
0.179698
0.0210912
0.175556
0.0233901
0.170991
0.0258075
0.165987
0.0283551
0.160527
0.0310412
0.154591
0.0338694
0.148161
0.0368364
0.141215
0.0399288
0.133734
0.0431194
0.125697
0.0463613
0.117088
0.0495811
0.107894
0.0526711
0.0981153
0.0554797
0.0877653
0.0578027
0.0768792
0.0593739
0.0655091
0.0598597
0.0537083
0.0588609
0.0414541
0.0558828
0.0285878
0.0504163
0.0148524
0.0423409
0.0309263
0.199653
0.00285032
0.198949
0.00548615
0.197871
0.00793954
0.196427
0.0102899
0.194627
0.0126039
0.192473
0.0149196
0.189964
0.0172637
0.187093
0.0196613
0.183854
0.0221359
0.180237
0.0247084
0.17623
0.0273966
0.171822
0.0302161
0.166997
0.0331798
0.161741
0.036297
0.156038
0.0395722
0.149872
0.0430029
0.143224
0.046577
0.136074
0.0502687
0.128402
0.0540335
0.120183
0.0578007
0.111388
0.0614654
0.101989
0.0648786
0.0919551
0.0678369
0.0812543
0.0700748
0.0698543
0.0712596
0.0577169
0.0709983
0.0447606
0.0688391
0.0308491
0.0643278
0.0158731
0.0573169
0.0467993
0.19965
0.00320026
0.198954
0.00618212
0.197904
0.00898915
0.196505
0.0116896
0.194763
0.0143461
0.192681
0.0170016
0.190257
0.0196872
0.187488
0.0224308
0.184366
0.0252579
0.180883
0.0281912
0.177029
0.0312504
0.172792
0.0344526
0.16816
0.0378118
0.163119
0.0413385
0.157653
0.0450383
0.151745
0.0489103
0.145378
0.0529444
0.138528
0.0571182
0.13117
0.0613917
0.123269
0.0657015
0.114783
0.0699521
0.105655
0.0740064
0.0958169
0.0776748
0.0851862
0.0807055
0.0736682
0.0827776
0.0611613
0.0835052
0.047555
0.0824454
0.0327585
0.0791244
0.0167828
0.0732926
0.0635821
0.199655
0.0035456
0.198975
0.00686222
0.197959
0.0100049
0.19661
0.0130383
0.194934
0.0160221
0.192934
0.0190021
0.190608
0.0220133
0.187952
0.025086
0.184963
0.0282478
0.18163
0.0315232
0.177947
0.0349337
0.173902
0.0384979
0.169482
0.0422313
0.164675
0.0461459
0.159464
0.0502491
0.153832
0.0545425
0.147757
0.0590196
0.141212
0.0636628
0.134164
0.06844
0.126567
0.0732983
0.118362
0.0781573
0.109469
0.0828993
0.0997865
0.0873577
0.0891872
0.0913048
0.0775249
0.0944399
0.0646471
0.096383
0.0504171
0.0966754
0.0347678
0.0947737
0.0177896
0.0902708
0.0813717
0.199664
0.00388142
0.199006
0.00752001
0.19803
0.0109811
0.196739
0.0143297
0.195137
0.0176241
0.193227
0.0209119
0.191009
0.0242311
0.188481
0.0276145
0.185637
0.0310917
0.182471
0.0346888
0.178976
0.0384291
0.175141
0.0423327
0.170955
0.046417
0.166405
0.0506961
0.161474
0.0551801
0.156143
0.0598738
0.150386
0.0647758
0.144174
0.0698757
0.137462
0.0751514
0.130196
0.0805648
0.122298
0.0860551
0.113667
0.0915305
0.104168
0.0968563
0.0936336
0.101839
0.0818643
0.106209
0.0686489
0.109598
0.0538014
0.111523
0.0372361
0.111339
0.0190831
0.108424
0.100455
0.199677
0.00420419
0.199047
0.00815024
0.198116
0.0119124
0.196887
0.0155579
0.195367
0.019145
0.193556
0.0227225
0.191456
0.0263308
0.189065
0.0300052
0.18638
0.0337769
0.183396
0.0376736
0.180104
0.0417202
0.176498
0.0459387
0.172567
0.0503486
0.168297
0.0549661
0.163672
0.0598048
0.158672
0.0648739
0.15327
0.0701783
0.147429
0.0757165
0.141101
0.081479
0.13422
0.0874455
0.126696
0.0935794
0.118405
0.0998215
0.109183
0.106078
0.098819
0.112204
0.0870519
0.117976
0.0735891
0.123061
0.0581477
0.126964
0.0405513
0.128936
0.020901
0.128074
0.121356
0.199693
0.00451126
0.199095
0.00874862
0.198213
0.012794
0.197053
0.0167176
0.19562
0.0205784
0.193916
0.0244263
0.191943
0.0283038
0.1897
0.0322481
0.187185
0.0362918
0.184395
0.0404644
0.181322
0.0447923
0.177962
0.0492991
0.174304
0.0540064
0.170337
0.0589333
0.166045
0.0640967
0.161408
0.0695112
0.156398
0.0751885
0.150977
0.0811374
0.145093
0.0873629
0.138674
0.0938646
0.131619
0.100634
0.123789
0.107651
0.114995
0.114872
0.104982
0.122217
0.0934182
0.12954
0.079897
0.136582
0.0639669
0.142894
0.0452339
0.147669
0.0236111
0.149697
0.144967
0.199711
0.00480056
0.199148
0.00931162
0.19832
0.0136216
0.197234
0.0178038
0.195894
0.0219185
0.194303
0.0260166
0.192465
0.0301423
0.190379
0.0343342
0.188044
0.0386265
0.185459
0.0430499
0.182619
0.0476322
0.179519
0.0523988
0.176153
0.057373
0.172509
0.0625768
0.168575
0.0680306
0.164332
0.0737542
0.159754
0.0797669
0.154803
0.0860878
0.14943
0.0927367
0.14356
0.0997345
0.137091
0.107103
0.129878
0.114864
0.121715
0.123035
0.112314
0.131618
0.101272
0.140582
0.0880441
0.14981
0.0719216
0.159017
0.0520849
0.167505
0.0278847
0.173897
0.172852
0.19973
0.00507049
0.199205
0.00983639
0.198435
0.0143916
0.197427
0.0188125
0.196185
0.0231605
0.194713
0.0274878
0.193016
0.0318396
0.191094
0.036256
0.188948
0.0407723
0.186578
0.0454202
0.183982
0.0502287
0.181156
0.0552245
0.178096
0.0604329
0.174795
0.0658779
0.171242
0.0715835
0.167422
0.0775742
0.163313
0.083876
0.158883
0.0905178
0.154086
0.0975334
0.148857
0.104964
0.143101
0.112859
0.136679
0.121285
0.129392
0.130322
0.120941
0.140069
0.110882
0.150641
0.0985416
0.162151
0.0828992
0.174659
0.0624335
0.187971
0.0351231
0.201207
0.207975
0.199751
0.00531978
0.199266
0.0103206
0.198557
0.015101
0.19763
0.01974
0.19649
0.0243003
0.195142
0.028835
0.193592
0.0333905
0.19184
0.0380075
0.18989
0.0427223
0.187743
0.0475674
0.185399
0.0525727
0.182858
0.0577658
0.180117
0.0631733
0.177174
0.0688212
0.174021
0.0747361
0.170649
0.0809463
0.167042
0.0874831
0.163177
0.0943833
0.159018
0.101692
0.154516
0.109466
0.149594
0.117781
0.144142
0.126737
0.137992
0.136472
0.130884
0.147177
0.122405
0.159121
0.111858
0.172697
0.0980146
0.188503
0.0785336
0.207452
0.0486607
0.23108
0.256635
0.199772
0.00554748
0.19933
0.0107625
0.198684
0.0157474
0.19784
0.0205835
0.196806
0.0253347
0.195586
0.0300547
0.194186
0.0347905
0.19261
0.0395837
0.190861
0.044471
0.188943
0.0494854
0.186859
0.0546571
0.18461
0.0600145
0.182199
0.0655848
0.179625
0.0713951
0.176887
0.0774738
0.173982
0.0838512
0.170903
0.0905625
0.167637
0.0976492
0.164165
0.105164
0.160459
0.113173
0.156474
0.121766
0.152145
0.131067
0.147371
0.141246
0.141993
0.152554
0.135749
0.165365
0.128168
0.180279
0.118308
0.198363
0.103917
0.221842
0.0776835
0.257314
0.334319
0.00364923
-0.00364923
0.00714353
-0.0034943
0.0100287
-0.0028852
0.0123023
-0.00227361
0.0140636
-0.00176127
0.0154176
-0.00135404
0.0164553
-0.00103769
0.017252
-0.000796644
0.0178683
-0.000616345
0.0183525
-0.000484217
0.0187427
-0.00039016
0.0190689
-0.000326236
0.0193549
-0.000285972
0.0196185
-0.000263632
0.0198721
-0.000253564
0.0201218
-0.000249727
0.0203674
-0.000245566
0.0206019
-0.000234466
0.0208128
-0.000210911
0.0209849
-0.000172144
0.0211045
-0.000119585
0.0211637
-5.9158e-05
0.0211659
-2.22941e-06
0.0211117
5.42301e-05
0.0210063
0.000105401
0.0208452
0.000161018
0.0206247
0.000220541
0.0203419
0.000282777
0.0200226
0.000319298
0.000250743
0.00337723
-0.00702647
0.00662026
-0.00673732
0.00934565
-0.00561059
0.0115609
-0.00448882
0.0133604
-0.00356084
0.0148364
-0.00283
0.0160645
-0.00226576
0.0171048
-0.00183703
0.0180043
-0.00151576
0.0187987
-0.00127861
0.0195158
-0.00110727
0.0201771
-0.000987573
0.0207994
-0.000908236
0.0213954
-0.000859678
0.0219748
-0.00083295
0.0225439
-0.000818856
0.0231059
-0.000807502
0.02366
-0.000788631
0.0242023
-0.000753179
0.024726
-0.000695829
0.0252238
-0.000617429
0.02569
-0.000525294
0.0261168
-0.000429086
0.0265044
-0.00033337
0.026851
-0.000241145
0.0271536
-0.000141574
0.0273999
-2.58455e-05
0.0275744
0.000108357
0.0276936
0.000200093
0.000188714
0.00284585
-0.00987231
0.00547097
-0.00936245
0.007625
-0.00776462
0.00935509
-0.00621891
0.0107587
-0.0049644
0.0119148
-0.00398614
0.0128845
-0.00323545
0.0137143
-0.00266683
0.0144386
-0.00224004
0.0150833
-0.00192338
0.0156686
-0.00169255
0.0162099
-0.00152889
0.0167194
-0.00141772
0.0172065
-0.0013468
0.0176786
-0.00130505
0.0181412
-0.00128137
0.0185974
-0.00126374
0.0190481
-0.00123937
0.0194913
-0.00119638
0.0199226
-0.00112709
0.0203367
-0.00103149
0.0207296
-0.00091827
0.0211013
-0.000800791
0.0214571
-0.000689087
0.0218018
-0.000585908
0.0221423
-0.000482043
0.0224847
-0.000368275
0.0228282
-0.000235129
0.0231377
-0.000109377
-1.44204e-05
0.00225468
-0.012127
0.0041519
-0.0112597
0.00561692
-0.00922964
0.00675467
-0.00735666
0.00766182
-0.00587154
0.00840006
-0.00472437
0.00901127
-0.00384666
0.00952746
-0.00318301
0.00996961
-0.0026822
0.0103535
-0.00230724
0.0106912
-0.0020303
0.0109925
-0.00183019
0.0112651
-0.00169032
0.0115154
-0.00159709
0.0117489
-0.00153855
0.0119705
-0.00150298
0.0121844
-0.00147762
0.0123932
-0.00144822
0.0125975
-0.00140064
0.0127949
-0.00132454
0.0129813
-0.00121788
0.0131521
-0.00108907
0.0133054
-0.000954035
0.0134441
-0.000827808
0.0135742
-0.000716016
0.013703
-0.000610883
0.0138329
-0.000498179
0.0139649
-0.000367091
0.0140796
-0.000224069
-8.04514e-05
0.00156379
-0.0136908
0.00265332
-0.0123492
0.00336658
-0.0099429
0.00385548
-0.00784556
0.00420519
-0.00622126
0.00445893
-0.00497811
0.00463737
-0.00402511
0.00476
-0.00330564
0.00483653
-0.00275873
0.0048749
-0.0023456
0.00488151
-0.00203691
0.00486169
-0.00181037
0.00481998
-0.00164861
0.00476062
-0.00153773
0.00468809
-0.00146602
0.00460751
-0.0014224
0.00452432
-0.00139443
0.00444327
-0.00136716
0.00436696
-0.00132433
0.00429459
-0.00125218
0.00422139
-0.00114468
0.00413982
-0.0010075
0.00404112
-0.000855344
0.00391829
-0.000704973
0.00376821
-0.000565936
0.00359412
-0.000436798
0.00340328
-0.000307333
0.00317295
-0.000136758
0.00290326
4.56186e-05
0.000102729
0.000766834
-0.0144576
0.000974067
-0.0125564
0.000896829
-0.00986567
0.000710592
-0.00765932
0.000448129
-0.0059588
0.000148793
-0.00467877
-0.000175487
-0.00370083
-0.000518828
-0.0029623
-0.000875719
-0.00240184
-0.00124061
-0.00198071
-0.00160908
-0.00166844
-0.00197758
-0.00144186
-0.00234295
-0.00128324
-0.00270212
-0.00117856
-0.00305165
-0.00111649
-0.00338751
-0.00108654
-0.00370566
-0.00107628
-0.0040035
-0.00106932
-0.00428136
-0.00104647
-0.00454291
-0.000990625
-0.00479401
-0.000893578
-0.00504036
-0.000761143
-0.0052872
-0.000608504
-0.00553978
-0.00045239
-0.00580189
-0.000303823
-0.00609029
-0.000148402
-0.00642036
2.27356e-05
-0.00672887
0.000171753
-0.00693036
0.000247109
0.000237364
-0.00018572
-0.0142719
-0.000878463
-0.0118637
-0.00175142
-0.00899271
-0.00266999
-0.00674075
-0.00359403
-0.00503475
-0.0044891
-0.00378371
-0.00533499
-0.00285493
-0.00613645
-0.00216084
-0.00688961
-0.00164868
-0.00759155
-0.00127877
-0.00824185
-0.00101814
-0.00884213
-0.000841585
-0.00939574
-0.000729624
-0.00990717
-0.000667141
-0.010381
-0.000642704
-0.0108207
-0.000646764
-0.0112289
-0.000668131
-0.011608
-0.000690184
-0.0119627
-0.000691745
-0.0123001
-0.000653259
-0.0126284
-0.000565289
-0.0129539
-0.000435639
-0.0132799
-0.00028253
-0.0136108
-0.000121424
-0.0139452
3.0519e-05
-0.0142507
0.000157139
-0.0144923
0.00026431
-0.0146816
0.000361038
-0.0148428
0.000408285
0.000385563
-0.00119283
-0.0130791
-0.00288901
-0.0101675
-0.00460161
-0.00728011
-0.00626618
-0.00507618
-0.00783171
-0.00346923
-0.00926459
-0.00235083
-0.0105445
-0.00157502
-0.0116785
-0.00102685
-0.0126808
-0.000646335
-0.0135689
-0.000390679
-0.0143594
-0.000227632
-0.0150669
-0.000134128
-0.0157044
-9.21316e-05
-0.016284
-8.75331e-05
-0.0168163
-0.000110392
-0.0173092
-0.000153828
-0.0177671
-0.000210211
-0.0181931
-0.000264219
-0.0185921
-0.000292731
-0.0189722
-0.000273182
-0.0193438
-0.000193731
-0.0197163
-6.31083e-05
-0.0200841
8.53265e-05
-0.0204188
0.00021324
-0.0206965
0.000308216
-0.0209277
0.000388305
-0.0211306
0.000467222
-0.0213066
0.00053705
-0.0214628
0.000564489
0.000544762
-0.00238742
-0.0106916
-0.00519962
-0.00735531
-0.00783711
-0.00464262
-0.010235
-0.00267824
-0.0123802
-0.00132411
-0.0142853
-0.000445696
-0.0159442
8.38589e-05
-0.0173391
0.000368103
-0.0184847
0.000499232
-0.0194323
0.000556932
-0.020231
0.00057103
-0.0209185
0.000553349
-0.0215232
0.000512572
-0.0220679
0.000457228
-0.022571
0.000392696
-0.0230445
0.000319627
-0.0234941
0.00023946
-0.023922
0.000163627
-0.02433
0.000115322
-0.0247205
0.000117324
-0.0250927
0.000178416
-0.0254391
0.000283317
-0.0257539
0.000400138
-0.0260404
0.000499677
-0.0262994
0.000567237
-0.0265245
0.000613415
-0.0267155
0.00065822
-0.0268792
0.000700775
-0.0270307
0.000716019
0.000706728
-0.0039496
-0.00674205
-0.00821586
-0.00308905
-0.0120921
-0.000766415
-0.0153218
0.0005515
-0.0178701
0.00122419
-0.0198366
0.00152083
-0.0213675
0.00161475
-0.0225998
0.00160036
-0.0236329
0.00153237
-0.0245151
0.00143907
-0.025281
0.00133697
-0.0259559
0.00122819
-0.0265574
0.00111414
-0.0271014
0.00100117
-0.0276017
0.000892986
-0.0280661
0.000784052
-0.028494
0.000667353
-0.0288811
0.000550726
-0.0292283
0.000462516
-0.0295472
0.000436231
-0.0298546
0.000485884
-0.030163
0.00059166
-0.0304717
0.000708869
-0.0307659
0.000793886
-0.0310278
0.000829087
-0.0312471
0.00083275
-0.0314265
0.000837621
-0.0315794
0.00085368
-0.0317259
0.000862471
0.000864309
-0.0062012
-0.000540843
-0.0116718
0.00238154
-0.0159647
0.00352649
-0.0192364
0.00382323
-0.0217706
0.00375834
-0.0237739
0.00352417
-0.0253774
0.00321823
-0.0266736
0.00289653
-0.0277326
0.00259143
-0.0286184
0.00232489
-0.0293804
0.00209896
-0.0300486
0.00189635
-0.0306397
0.00170525
-0.0311696
0.0015311
-0.0316561
0.00137943
-0.0321096
0.00123759
-0.0325271
0.00108486
-0.0328989
0.000922557
-0.0332245
0.000788109
-0.0335208
0.000732448
-0.0338127
0.000777846
-0.0341175
0.000896401
-0.0344327
0.00102408
-0.034737
0.00109819
-0.0350033
0.00109541
-0.0352164
0.00104581
-0.0353824
0.00100369
-0.0355233
0.000994527
-0.0356626
0.00100177
0.00101518
-0.00788578
0.00734494
-0.0141823
0.00867801
-0.0189405
0.00828473
-0.0225565
0.00743923
-0.0252919
0.00649374
-0.0273675
0.00559974
-0.028977
0.00482782
-0.0302516
0.00417103
-0.0312737
0.00361355
-0.0321173
0.00316852
-0.0328454
0.00282705
-0.0334903
0.00254127
-0.0340609
0.00227589
-0.0345694
0.00203959
-0.035039
0.00184901
-0.0354854
0.00168397
-0.0359003
0.00149977
-0.036262
0.00128425
-0.0365634
0.00108949
-0.036828
0.000997109
-0.0370957
0.00104553
-0.0373936
0.00119423
-0.0377182
0.0013487
-0.038038
0.00141802
-0.0383122
0.0013696
-0.0385177
0.00125128
-0.0386658
0.00115184
-0.0387905
0.00111921
-0.0389199
0.00113115
0.00115716
-0.00945689
0.0168018
-0.0171545
0.0163756
-0.0224872
0.0136174
-0.0262017
0.0111538
-0.0288849
0.0091769
-0.0308372
0.00755205
-0.0323134
0.00630404
-0.0334756
0.00533323
-0.0343918
0.00452969
-0.0351368
0.00391351
-0.0357949
0.00348523
-0.0364003
0.00314664
-0.0369395
0.00281506
-0.037412
0.00251211
-0.0378515
0.00228854
-0.0382862
0.00211869
-0.0387008
0.00191435
-0.0390516
0.00163505
-0.0393179
0.00135578
-0.0395339
0.00121312
-0.0397641
0.00127576
-0.0400519
0.00148196
-0.0403917
0.00168855
-0.0407363
0.00176263
-0.0410242
0.00165741
-0.0412196
0.0014467
-0.0413413
0.00127358
-0.0414427
0.00122058
-0.0415596
0.00124803
0.00128899
-0.0125396
0.0293414
-0.0218502
0.0256862
-0.0271542
0.0189214
-0.0303669
0.0143664
-0.0326912
0.0115013
-0.0342743
0.00913515
-0.035431
0.0074607
-0.0363861
0.00628829
-0.0371341
0.00527773
-0.0377168
0.00449624
-0.0382647
0.0040331
-0.0388227
0.00370458
-0.0393256
0.00331798
-0.0397426
0.00292917
-0.0401299
0.00267586
-0.0405471
0.0025358
-0.0409703
0.00233758
-0.0413158
0.00198056
-0.0415349
0.00157486
-0.0416777
0.00135595
-0.0418519
0.00144999
-0.0421274
0.00175739
-0.042493
0.00205424
-0.0428773
0.00214689
-0.0431879
0.00196803
-0.0433693
0.00162811
-0.0434503
0.00135454
-0.0435169
0.00128715
-0.0436197
0.00135084
0.00141173
-0.0178845
0.0472259
-0.0291304
0.0369321
-0.0336574
0.0234485
-0.035106
0.0158151
-0.0367563
0.0131515
-0.0376454
0.0100243
-0.038222
0.00803734
-0.0389368
0.0070031
-0.0395276
0.00586845
-0.039869
0.00483771
-0.0402391
0.0044032
-0.0407541
0.00421955
-0.0412338
0.00379764
-0.0415754
0.00327083
-0.0418776
0.00297805
-0.0422754
0.00293358
-0.0427335
0.00279572
-0.043094
0.00234101
-0.0432513
0.0017322
-0.0432804
0.00138505
-0.0433688
0.00153839
-0.0436298
0.00201837
-0.0440379
0.00246236
-0.0444839
0.0025928
-0.0448311
0.0023153
-0.0449926
0.00178961
-0.0450092
0.00137108
-0.0450221
0.0013001
-0.0451121
0.00144084
0.00153194
0.207447
0.00576024
0.207034
0.0111751
0.206432
0.01635
0.205647
0.021368
0.204688
0.026294
0.203561
0.0311821
0.202271
0.03608
0.200825
0.0410294
0.199229
0.0460673
0.197488
0.0512267
0.195607
0.0565379
0.193592
0.0620293
0.191449
0.0677282
0.189182
0.073662
0.186796
0.0798593
0.184296
0.0863513
0.181685
0.093174
0.178964
0.10037
0.176133
0.107994
0.173191
0.116115
0.170134
0.124823
0.166956
0.134244
0.163654
0.144549
0.160228
0.15598
0.156701
0.168892
0.153166
0.183813
0.14999
0.201539
0.148847
0.222985
0.160528
0.245633
0.258806
0.236041
0.21249
0.00595266
0.212118
0.011548
0.211574
0.0168936
0.210868
0.0220739
0.210008
0.0271544
0.209
0.0321896
0.207853
0.0372271
0.206574
0.0423086
0.20517
0.0474709
0.20365
0.0527467
0.202022
0.0581659
0.200295
0.0637562
0.198479
0.0695442
0.196585
0.0755566
0.194623
0.0818209
0.192607
0.0883671
0.190552
0.0952292
0.188475
0.102448
0.186396
0.110072
0.184346
0.118165
0.182363
0.126806
0.18051
0.136098
0.178884
0.146175
0.177657
0.157207
0.177152
0.169397
0.178021
0.182944
0.181681
0.19788
0.190733
0.213933
0.206186
0.230181
0.245702
0.219289
0.217658
0.0061226
0.217329
0.011877
0.21685
0.0173722
0.21623
0.0226936
0.215478
0.0279068
0.214601
0.0330663
0.213609
0.0382193
0.21251
0.0434072
0.211315
0.0486663
0.210033
0.0540283
0.208677
0.0595221
0.207259
0.0651743
0.205794
0.0710099
0.204296
0.0770536
0.202787
0.0833307
0.201286
0.0898678
0.19982
0.0966947
0.198423
0.103845
0.197135
0.11136
0.196013
0.119287
0.195135
0.127684
0.194614
0.136619
0.19462
0.146168
0.195416
0.15641
0.197414
0.1674
0.201223
0.179135
0.207613
0.191489
0.217246
0.2043
0.229843
0.217584
0.228765
0.24678
0.222951
0.00626806
0.22267
0.0121583
0.222262
0.0177804
0.221735
0.0232199
0.2211
0.0285424
0.220364
0.0338018
0.219539
0.0390449
0.218634
0.0443123
0.217661
0.0496389
0.216634
0.0550556
0.215566
0.0605896
0.214475
0.0662654
0.213379
0.072106
0.2123
0.078133
0.211262
0.084368
0.210297
0.0908329
0.209441
0.0975508
0.20874
0.104547
0.208251
0.111848
0.208053
0.119486
0.208247
0.12749
0.208973
0.135892
0.210426
0.144716
0.212867
0.153968
0.216645
0.163622
0.222177
0.173602
0.229915
0.183752
0.240428
0.193786
0.254636
0.203376
0.21027
0.27313
0.228374
0.00638719
0.228144
0.0123883
0.227812
0.018113
0.227385
0.0236462
0.226875
0.0290532
0.226289
0.034387
0.225641
0.0396935
0.224941
0.045012
0.224204
0.0503763
0.223444
0.0558152
0.222679
0.0613541
0.22193
0.0670151
0.221218
0.072818
0.22057
0.0787808
0.220018
0.0849204
0.219598
0.0912527
0.219356
0.0977929
0.219347
0.104556
0.219641
0.111555
0.220325
0.118801
0.221513
0.126302
0.22335
0.134056
0.22602
0.142046
0.229754
0.150234
0.234833
0.158544
0.241584
0.166851
0.250387
0.174949
0.261687
0.182486
0.275959
0.189105
0.193722
0.292507
0.233929
0.00647829
0.233754
0.0125638
0.233502
0.0183652
0.233181
0.0239666
0.232802
0.029432
0.232376
0.0348136
0.231914
0.0401559
0.231429
0.0454966
0.230937
0.0508678
0.230456
0.0562964
0.230005
0.061805
0.229607
0.067413
0.229289
0.0731368
0.22908
0.07899
0.229016
0.0849841
0.22914
0.0911286
0.229502
0.0974304
0.230165
0.103894
0.231201
0.110518
0.232703
0.117299
0.234782
0.124223
0.237574
0.131263
0.241243
0.138377
0.245981
0.145495
0.252009
0.152516
0.25957
0.159291
0.268904
0.165615
0.280191
0.171199
0.293526
0.17577
0.178814
0.308434
0.23962
0.00653987
0.239502
0.0126819
0.239334
0.018533
0.239125
0.0241757
0.238884
0.0296727
0.238623
0.0350747
0.238354
0.0404246
0.238093
0.0457582
0.237855
0.0511056
0.23766
0.0564913
0.23753
0.0619352
0.237489
0.0674536
0.237567
0.0730588
0.237797
0.0787603
0.238217
0.0845639
0.238873
0.0904726
0.239818
0.0964853
0.241115
0.102596
0.242839
0.108795
0.245076
0.115062
0.247931
0.121368
0.251522
0.127672
0.255986
0.133914
0.26147
0.140011
0.268133
0.145853
0.276124
0.1513
0.285562
0.156177
0.296494
0.160267
0.308908
0.163356
0.165176
0.322546
0.245448
0.00657069
0.24539
0.0127402
0.24531
0.0186129
0.245216
0.0242693
0.245119
0.0297703
0.245029
0.0351649
0.244959
0.0404938
0.244927
0.0457911
0.244948
0.0510844
0.245044
0.0563955
0.245237
0.0617418
0.245555
0.0671359
0.246027
0.0725865
0.246689
0.0780985
0.24758
0.0836727
0.248747
0.0893058
0.250242
0.0949898
0.252128
0.100711
0.254472
0.10645
0.257357
0.112178
0.260869
0.117856
0.265109
0.123433
0.27018
0.128842
0.27619
0.134001
0.283237
0.138806
0.291404
0.143134
0.300736
0.146844
0.311224
0.149779
0.322799
0.151781
0.152716
0.335259
0.251418
0.0065697
0.251422
0.0127367
0.251432
0.0186023
0.251457
0.0242441
0.251507
0.0297211
0.251591
0.0350801
0.251725
0.0403599
0.251925
0.045592
0.252207
0.0508016
0.252595
0.0560081
0.253111
0.0612257
0.253783
0.0664639
0.254642
0.0717276
0.255722
0.0770177
0.257065
0.0823302
0.258714
0.0876569
0.26072
0.092984
0.263139
0.0982921
0.266034
0.103555
0.269473
0.108738
0.273531
0.113798
0.278281
0.118682
0.283801
0.123323
0.290159
0.127643
0.297413
0.131553
0.305595
0.134951
0.314707
0.137731
0.324705
0.139782
0.335489
0.140997
0.141318
0.346887
0.257532
0.00653618
0.257599
0.0126701
0.257702
0.018499
0.257849
0.0240978
0.258047
0.0295227
0.258309
0.0348183
0.258648
0.0400209
0.25908
0.0451599
0.259624
0.0502578
0.2603
0.0553314
0.261134
0.060392
0.262152
0.0654459
0.263385
0.070495
0.264866
0.0755363
0.266634
0.0805623
0.26873
0.0855605
0.271201
0.0905131
0.274096
0.0953969
0.277469
0.100182
0.281376
0.104832
0.285872
0.109302
0.291014
0.11354
0.296851
0.117486
0.303422
0.121071
0.310753
0.124222
0.318845
0.126859
0.327671
0.128905
0.337167
0.130286
0.347228
0.130936
0.130834
0.357712
0.263794
0.00646964
0.263925
0.0125394
0.264122
0.0183021
0.26439
0.0238292
0.264739
0.029174
0.265179
0.0343788
0.265722
0.0394773
0.266386
0.0444964
0.267187
0.0494563
0.268148
0.0543709
0.269291
0.0592491
0.270642
0.0640944
0.272231
0.0689059
0.27409
0.0736776
0.276253
0.0783991
0.278759
0.0830551
0.281646
0.0876255
0.284958
0.0920847
0.288738
0.0964021
0.293029
0.100541
0.297872
0.104459
0.303303
0.108109
0.30935
0.111438
0.316032
0.114389
0.32335
0.116904
0.331284
0.118925
0.339792
0.120397
0.348804
0.121274
0.358222
0.121519
0.121131
0.367925
0.270207
0.00636992
0.270402
0.0123444
0.270693
0.0180113
0.271084
0.0234381
0.271582
0.0286755
0.272198
0.0337628
0.272944
0.0387313
0.273835
0.0436054
0.274889
0.0484028
0.276124
0.0531351
0.277565
0.0578089
0.279234
0.0624252
0.281159
0.0669809
0.283369
0.0714678
0.285894
0.0758736
0.288768
0.0801815
0.292023
0.08437
0.295694
0.0884135
0.299815
0.0922818
0.304415
0.0959407
0.309522
0.0993519
0.315158
0.102474
0.321333
0.105263
0.328049
0.107673
0.335291
0.109662
0.343029
0.111187
0.351213
0.112214
0.359773
0.112714
0.36862
0.112671
0.112097
0.377655
0.276774
0.00623711
0.277033
0.0120852
0.277417
0.017627
0.277929
0.0229257
0.278576
0.0280289
0.279366
0.0329731
0.28031
0.0377871
0.281423
0.0424928
0.28272
0.0471057
0.28422
0.0516352
0.285943
0.0560858
0.287911
0.0604569
0.290149
0.0647434
0.292681
0.0689358
0.295533
0.0730208
0.298734
0.0769809
0.302309
0.0807949
0.306284
0.0844381
0.310684
0.0878825
0.315527
0.0910971
0.32083
0.0940489
0.326601
0.096703
0.332839
0.0990246
0.339533
0.100979
0.34666
0.102535
0.354182
0.103665
0.362048
0.104347
0.370193
0.104569
0.378539
0.104326
0.103635
0.387001
0.283498
0.00607159
0.283821
0.0117628
0.284297
0.0171505
0.284929
0.0222939
0.285721
0.0272371
0.28668
0.0320139
0.287816
0.0366505
0.289143
0.0411665
0.290673
0.0455753
0.292424
0.0498845
0.294413
0.0540967
0.29666
0.0582101
0.299185
0.0622185
0.302009
0.0661116
0.305154
0.0698759
0.308641
0.0734941
0.312489
0.0769463
0.316718
0.0802095
0.321341
0.0832588
0.326371
0.0860674
0.331812
0.0886077
0.337664
0.0908518
0.343915
0.0927727
0.350549
0.0943455
0.357536
0.0955487
0.364835
0.0963654
0.372398
0.0967845
0.380165
0.0968025
0.388068
0.0964226
0.0956654
0.396037
0.290384
0.00587401
0.290768
0.0113783
0.291335
0.016584
0.292083
0.0215458
0.293016
0.0263044
0.294139
0.0308909
0.29546
0.035329
0.296991
0.0396361
0.298742
0.0438236
0.300729
0.0478977
0.302966
0.0518597
0.305469
0.0557068
0.308256
0.0594321
0.311342
0.0630254
0.314745
0.0664734
0.318479
0.06976
0.322558
0.0728668
0.326994
0.0757736
0.331794
0.0784589
0.336961
0.0809003
0.342493
0.0830755
0.348382
0.084963
0.354612
0.0865432
0.361158
0.0877987
0.367991
0.0887161
0.37507
0.0892865
0.382348
0.0895063
0.389773
0.0893779
0.397286
0.0889096
0.0881226
0.404828
0.297435
0.00564522
0.297879
0.0109335
0.298533
0.0159301
0.299394
0.0206851
0.300463
0.0252359
0.301743
0.0296108
0.303241
0.0338311
0.304964
0.0379123
0.306924
0.041864
0.309131
0.0456911
0.311596
0.0493941
0.314334
0.0529694
0.317355
0.0564102
0.320674
0.0597067
0.324301
0.0628464
0.328246
0.0658147
0.332518
0.0685954
0.33712
0.0711712
0.342055
0.073524
0.347319
0.075636
0.352905
0.0774899
0.358798
0.0790698
0.36498
0.0803619
0.371423
0.0813554
0.378096
0.082043
0.384961
0.0824215
0.391975
0.0824924
0.399091
0.082262
0.406259
0.0817411
0.0809507
0.413431
0.304654
0.00538629
0.305157
0.0104306
0.305895
0.015192
0.306864
0.0197163
0.308062
0.0240375
0.309492
0.0281812
0.311157
0.0321664
0.313062
0.0360067
0.315216
0.0397104
0.317625
0.0432813
0.3203
0.0467192
0.323249
0.0500204
0.326481
0.0531783
0.330004
0.0561838
0.333825
0.0590257
0.337948
0.0616912
0.342377
0.0641665
0.347111
0.0664372
0.352146
0.0684888
0.357475
0.0703075
0.363085
0.0718803
0.368958
0.0731962
0.375073
0.0742465
0.381404
0.0750251
0.387918
0.0755293
0.394579
0.07576
0.40135
0.0757219
0.408188
0.0754237
0.415052
0.0748774
0.0741027
0.4219
0.312046
0.00509844
0.312605
0.00987178
0.313424
0.0143733
0.314495
0.0186444
0.315817
0.0227158
0.317388
0.0266103
0.319209
0.0303451
0.321284
0.0339317
0.323617
0.0373774
0.326214
0.0406851
0.329079
0.0438543
0.332218
0.0468814
0.335636
0.0497603
0.339337
0.0524828
0.343323
0.0550393
0.347595
0.0574189
0.352152
0.0596101
0.356987
0.0616015
0.362095
0.0633817
0.367462
0.0649404
0.373073
0.0662687
0.37891
0.0673595
0.384949
0.0682078
0.391162
0.0688112
0.397521
0.0691704
0.403992
0.0692891
0.41054
0.0691738
0.41713
0.0688344
0.423724
0.0682832
0.0675383
0.430288
0.319615
0.00478298
0.320227
0.0092598
0.321122
0.0134781
0.322292
0.0174749
0.32373
0.0212777
0.325433
0.0249069
0.327401
0.0283774
0.329633
0.0316995
0.332131
0.0348792
0.334898
0.0379189
0.337934
0.0408178
0.341243
0.0435728
0.344825
0.0461784
0.34868
0.0486275
0.352807
0.050912
0.357203
0.053023
0.361862
0.0549513
0.366775
0.0566881
0.371932
0.0582248
0.377318
0.0595544
0.382916
0.060671
0.388705
0.0615705
0.394662
0.062251
0.40076
0.0627128
0.406972
0.0629588
0.413266
0.0629944
0.419613
0.0628271
0.42598
0.0624673
0.432336
0.0619269
0.0612224
0.438652
0.327365
0.00444128
0.328027
0.00859731
0.328995
0.0125103
0.330257
0.0162131
0.331804
0.0197302
0.333632
0.0230795
0.335735
0.0262738