/*--------------------------------*- C++ -*----------------------------------*\
| =========                 |                                                 |
| \\      /  F ield         | OpenFOAM: The Open Source CFD Toolbox           |
|  \\    /   O peration     | Version:  4.1                                   |
|   \\  /    A nd           | Web:      www.OpenFOAM.org                      |
|    \\/     M anipulation  |                                                 |
\*---------------------------------------------------------------------------*/
FoamFile
{
    version     2.0;
    format      ascii;
    class       volVectorField;
    location    "0.4";
    object      Force;
}
// * * * * * * * * * * * * * * * * * * * * * * * * * * * * * * * * * * * * * //

dimensions      [1 1 -2 0 0 0 0];

internalField   uniform (0 0 0);

boundaryField
{
    inlet
    {
        type            calculated;
        value           uniform (0 0 0);
    }
    outlet
    {
        type            calculated;
        value           uniform (0 0 0);
    }
    flap
    {
        type            calculated;
        value           nonuniform List<vector> 
33
(
(2.32678 -0.109369 -3.65527e-18)
(2.29727 -0.217751 3.2666e-18)
(2.25962 -0.281746 -1.4381e-21)
(2.22704 -0.297028 1.17549e-38)
(2.19528 -0.296204 1.65111e-18)
(2.15582 -0.28514 1.27856e-18)
(2.10422 -0.265052 1.62011e-18)
(2.03883 -0.234253 -6.91783e-21)
(1.96068 -0.195962 0)
(1.86876 -0.157216 2.86977e-18)
(1.75028 -0.12667 1.60675e-18)
(1.59258 -0.100608 0)
(1.37171 -0.0788705 9.28586e-19)
(1.03828 -0.0548552 -9.06706e-19)
(0.460349 -0.0196863 -1.03661e-22)
(0.0780878 1.28236 -1.01809e-21)
(0.0651028 1.08271 0)
(0.0513365 0.886273 8.91649e-22)
(1.1618 -0.0597215 1.4384e-18)
(1.17811 -0.119268 1.50737e-18)
(1.20186 -0.153944 6.49744e-22)
(1.22836 -0.164954 4.52679e-21)
(1.26302 -0.168929 2.90778e-22)
(1.31267 -0.171691 -1.65791e-18)
(1.37386 -0.169094 3.67342e-39)
(1.43953 -0.161566 2.51789e-19)
(1.50292 -0.145107 -2.3589e-21)
(1.5527 -0.127934 1.03914e-18)
(1.58587 -0.112676 -2.73219e-18)
(1.60144 -0.101626 1.17549e-38)
(1.59776 -0.0936685 1.02856e-37)
(1.57841 -0.0904861 1.40979e-21)
(1.54716 -0.0879232 -8.48836e-23)
)
;
    }
    upperWall
    {
        type            calculated;
        value           uniform (0 0 0);
    }
    lowerWall
    {
        type            calculated;
        value           uniform (0 0 0);
    }
    frontAndBack
    {
        type            empty;
    }
}


// ************************************************************************* //
