/*--------------------------------*- C++ -*----------------------------------*\
| =========                 |                                                 |
| \\      /  F ield         | OpenFOAM: The Open Source CFD Toolbox           |
|  \\    /   O peration     | Version:  4.1                                   |
|   \\  /    A nd           | Web:      www.OpenFOAM.org                      |
|    \\/     M anipulation  |                                                 |
\*---------------------------------------------------------------------------*/
FoamFile
{
    version     2.0;
    format      ascii;
    class       surfaceVectorField;
    location    "0.4";
    object      Uf;
}
// * * * * * * * * * * * * * * * * * * * * * * * * * * * * * * * * * * * * * //

dimensions      [0 1 -1 0 0 0 0];

internalField   nonuniform List<vector> 
5457
(
(9.91913 0.0241407 -8.70734e-21)
(9.95843 0.0375411 7.63204e-21)
(9.82339 0.0310284 -3.78127e-21)
(9.9246 0.0457065 -8.7137e-21)
(9.71244 0.0367884 5.11385e-21)
(9.86023 0.0545403 9.9371e-22)
(9.5838 0.0428065 4.01746e-21)
(9.76753 0.065102 5.03573e-23)
(9.43737 0.0490754 0)
(9.65471 0.0762745 0)
(9.27323 0.0556325 4.60517e-21)
(9.52449 0.087975 1.7134e-20)
(9.09108 0.0626169 -2.44503e-22)
(9.37623 0.100443 -1.29482e-20)
(8.89027 0.0701689 -4.59089e-21)
(9.20882 0.113909 4.45227e-21)
(8.66995 0.0784105 -5.18956e-21)
(9.02136 0.128559 0)
(8.42906 0.0874575 -5.04732e-21)
(8.81298 0.144566 -1.77469e-22)
(8.16646 0.097426 0)
(8.58266 0.162103 0)
(7.88085 0.108432 2.45334e-20)
(8.32917 0.181335 -4.37852e-20)
(7.5709 0.120587 -2.74804e-20)
(8.05122 0.202421 9.18437e-20)
(7.23528 0.133987 4.58008e-20)
(7.74743 0.22549 -5.06416e-20)
(6.8727 0.148703 5.03019e-20)
(7.41645 0.250621 -2.07054e-20)
(6.48212 0.164763 -4.16392e-20)
(7.05703 0.277817 5.0158e-20)
(6.0628 0.182134 -3.31791e-20)
(6.66813 0.306981 1.73688e-19)
(5.6145 0.20068 -3.2262e-20)
(6.24912 0.337868 -2.41433e-19)
(5.13774 0.220111 3.84161e-20)
(5.79989 0.370002 0)
(4.63408 0.239928 3.73514e-20)
(5.32108 0.40261 7.22491e-20)
(4.10646 0.259352 0)
(4.81448 0.434551 7.37726e-20)
(3.55954 0.277219 0)
(4.28321 0.464223 0)
(3.00011 0.291852 1.06355e-19)
(3.73208 0.489464 0)
(2.43755 0.30085 1.03526e-19)
(3.16793 0.507406 1.27636e-20)
(1.88441 0.300852 0)
(2.59969 0.514229 1.81194e-18)
(1.35714 0.287303 -2.74186e-19)
(2.03878 0.504908 1.86544e-20)
(0.876829 0.254031 -1.74899e-18)
(1.49896 0.472964 -1.91743e-18)
(0.470358 0.195765 1.99144e-18)
(0.998002 0.409973 -1.72418e-18)
(0.164491 0.108524 1.28344e-18)
(0.531432 0.312488 8.19834e-18)
(0.243944 0.179035 -1.14628e-17)
(9.99885 0.0487509 7.38681e-21)
(9.98566 0.038078 7.63065e-21)
(9.96464 0.0657114 -3.79968e-21)
(9.97726 0.0620383 -7.44251e-24)
(9.90929 0.0808425 -4.08208e-21)
(9.94229 0.0817543 0)
(9.83456 0.0969612 -3.96658e-21)
(9.87974 0.102926 -4.02414e-21)
(9.74025 0.114056 1.73771e-20)
(9.79652 0.125408 0)
(9.62625 0.132169 -8.47256e-22)
(9.69549 0.149086 2.52503e-22)
(9.49229 0.151594 -8.00877e-21)
(9.57629 0.174325 -7.38435e-23)
(9.3378 0.172643 8.98133e-21)
(9.43794 0.201559 5.44841e-20)
(9.16198 0.195595 5.01051e-21)
(9.27965 0.231164 -3.7134e-20)
(8.96385 0.220709 4.87333e-21)
(9.10065 0.263497 4.94203e-21)
(8.74227 0.24824 -4.43926e-20)
(8.90001 0.298908 0)
(8.49598 0.278433 2.54052e-20)
(8.67664 0.337747 -4.37889e-20)
(8.22362 0.311502 6.67108e-20)
(8.42927 0.380342 -4.45224e-20)
(7.92381 0.347612 -1.16748e-19)
(8.15661 0.426978 9.21495e-20)
(7.59519 0.386833 -1.99049e-20)
(7.85731 0.477857 -1.15162e-19)
(7.23653 0.429103 2.67208e-19)
(7.53 0.533036 9.23886e-20)
(6.84687 0.474184 -4.02349e-20)
(7.17347 0.592374 -2.13873e-19)
(6.42566 0.521568 -2.05764e-19)
(6.78676 0.655468 2.47661e-19)
(5.97296 0.570371 3.47627e-20)
(6.3693 0.721503 0)
(5.48969 0.619235 1.08614e-19)
(5.921 0.789095 -3.10668e-20)
(4.97792 0.666229 7.2758e-20)
(5.4426 0.856191 1.12511e-18)
(4.44109 0.708741 0)
(4.93585 0.919924 -2.3652e-18)
(3.88425 0.743371 -9.3801e-20)
(4.40361 0.976473 1.33604e-19)
(3.31414 0.765789 1.74412e-18)
(3.85018 1.02099 1.42138e-18)
(2.73904 0.770616 1.80976e-18)
(3.28101 1.04747 1.62891e-18)
(2.16815 0.751554 -1.64334e-18)
(2.7024 1.04875 -3.74096e-19)
(1.61002 0.701812 -1.88917e-18)
(2.12044 1.01732 -1.64358e-18)
(1.06886 0.61674 4.53595e-18)
(1.54187 0.947005 2.09201e-19)
(0.539473 0.493983 -4.88215e-18)
(0.950422 0.840935 4.24591e-18)
(0.464359 0.698497 -1.0537e-17)
(9.99149 0.0545234 9.82536e-23)
(9.98335 0.0420279 -3.82742e-21)
(9.96035 0.0811459 3.79593e-21)
(9.97239 0.0769023 3.85201e-21)
(9.9084 0.10648 0)
(9.93831 0.107292 1.56359e-20)
(9.83833 0.133251 0)
(9.87859 0.138389 -3.18968e-20)
(9.75044 0.161716 -1.71215e-20)
(9.79908 0.171187 1.6272e-20)
(9.64461 0.192023 1.01681e-21)
(9.70267 0.205813 3.36904e-20)
(9.52061 0.224582 6.3185e-20)
(9.58927 0.242706 -3.42876e-20)
(9.37802 0.259861 7.08903e-21)
(9.45807 0.282444 -4.45724e-20)
(9.21623 0.298307 -3.66203e-20)
(9.30843 0.325575 -3.8403e-20)
(9.03442 0.340354 0)
(9.13975 0.372623 7.61688e-20)
(8.83161 0.386431 0)
(8.95132 0.424111 -1.99358e-20)
(8.60672 0.436959 -1.13715e-19)
(8.74223 0.480559 0)
(8.35853 0.492322 -1.71954e-20)
(8.51146 0.542471 -3.31884e-19)
(8.08575 0.552836 9.08857e-20)
(8.25792 0.610299 8.78252e-20)
(7.78704 0.618689 0)
(7.98042 0.684416 2.36575e-19)
(7.46105 0.689862 -3.93041e-19)
(7.67773 0.765014 4.99993e-20)
(7.10655 0.766062 8.02542e-20)
(7.34859 0.852021 -3.35173e-19)
(6.72253 0.846604 4.50125e-19)
(6.99188 0.945022 9.07397e-19)
(6.3083 0.930228 -6.61671e-20)
(6.60663 1.04309 -3.47416e-19)
(5.86368 1.01495 1.00162e-18)
(6.19204 1.14456 9.39846e-19)
(5.38915 1.09791 -1.35963e-18)
(5.74771 1.24688 1.20603e-18)
(4.88604 1.17524 -2.19943e-18)
(5.2737 1.34641 -3.47035e-18)
(4.35663 1.242 1.66485e-18)
(4.77065 1.43833 1.18222e-18)
(3.80415 1.29212 1.31011e-18)
(4.23985 1.51656 1.01381e-19)
(3.23238 1.31861 -5.78001e-19)
(3.68319 1.5739 -1.82921e-19)
(2.64482 1.31413 -3.88699e-19)
(3.10258 1.6023 -3.31692e-18)
(2.04346 1.27271 4.69611e-19)
(2.49924 1.59422 3.12748e-18)
(1.42759 1.19392 -4.75194e-20)
(1.87577 1.54469 4.65292e-19)
(0.792496 1.08473 -1.66627e-18)
(1.21596 1.45957 -3.84851e-20)
(0.61592 1.33975 -1.1461e-18)
(9.98743 0.0647233 0)
(9.98208 0.0478644 1.51086e-20)
(9.95623 0.102176 1.58634e-20)
(9.96936 0.0917983 0)
(9.90517 0.138288 -1.69345e-20)
(9.93508 0.132394 1.56366e-20)
(9.83618 0.175482 -1.49482e-20)
(9.8764 0.173309 1.57056e-20)
(9.74993 0.21454 6.73291e-20)
(9.79846 0.216119 -1.60505e-20)
(9.6464 0.255901 -2.57533e-21)
(9.70402 0.26131 8.40644e-20)
(9.52545 0.300135 -1.4219e-19)
(9.59314 0.309417 -6.86826e-20)
(9.38678 0.347875 -8.9979e-20)
(9.46515 0.361121 -7.23244e-20)
(9.22996 0.399743 7.59845e-20)
(9.31951 0.417103 -5.68134e-20)
(9.05437 0.456347 5.49116e-20)
(9.15576 0.478029 1.12564e-19)
(8.85931 0.518292 -1.96632e-20)
(8.97334 0.544559 3.85376e-20)
(8.64394 0.586175 -2.2274e-19)
(8.77157 0.617354 4.0804e-20)
(8.40735 0.660559 -2.21117e-19)
(8.54965 0.697059 -4.17343e-21)
(8.14854 0.741943 2.35548e-19)
(8.30671 0.784281 -1.80652e-19)
(7.86643 0.830698 2.84059e-19)
(8.04183 0.879549 1.89844e-19)
(7.55989 0.926955 1.02633e-19)
(7.75401 0.983221 -3.9434e-19)
(7.22776 1.03052 5.08991e-19)
(7.44217 1.09536 4.0576e-19)
(6.86894 1.14074 9.2795e-20)
(7.10521 1.21565 1.22798e-19)
(6.48239 1.25631 6.76117e-19)
(6.74205 1.34325 -1.46217e-20)
(6.06714 1.37503 1.14864e-18)
(6.3515 1.47652 1.00565e-18)
(5.62243 1.49365 -9.66274e-19)
(5.93237 1.6128 -9.61942e-20)
(5.14774 1.60767 -2.79101e-20)
(5.48345 1.74823 -1.10479e-18)
(4.64284 1.71129 -3.9426e-19)
(5.00354 1.87758 7.71389e-19)
(4.10776 1.79748 -1.39653e-18)
(4.49146 1.9942 -1.70818e-18)
(3.54257 1.85826 -2.95553e-18)
(3.94612 2.09023 -2.54743e-18)
(2.94704 1.88553 2.57979e-19)
(3.36622 2.15695 -2.33206e-19)
(2.32032 1.87293 3.10134e-18)
(2.75012 2.18609 5.68727e-18)
(1.66166 1.81995 4.71021e-19)
(2.09931 2.17174 -2.74501e-18)
(0.972453 1.73101 4.62091e-19)
(1.40161 2.11768 4.67472e-19)
(0.730458 2.01885 0)
(9.98544 0.0755459 1.49002e-20)
(9.98142 0.0546232 1.12405e-23)
(9.95376 0.122301 0)
(9.96781 0.10693 0)
(9.9035 0.167991 4.82902e-20)
(9.93352 0.157105 0)
(9.83572 0.214776 1.41605e-20)
(9.87592 0.207622 2.60703e-22)
(9.75113 0.263811 2.09755e-21)
(9.79969 0.260198 -2.45104e-22)
(9.64978 0.315783 1.58014e-20)
(9.70743 0.315648 1.70346e-20)
(9.53155 0.371373 1.1379e-21)
(9.59921 0.374638 -1.02278e-19)
(9.39619 0.431311 -3.89304e-20)
(9.47443 0.437939 6.95507e-20)
(9.24333 0.496331 -1.78904e-20)
(9.33262 0.506341 -8.54699e-22)
(9.07247 0.567153 9.51773e-20)
(9.17338 0.580628 -1.12296e-19)
(8.88303 0.644498 9.90475e-20)
(8.99624 0.661576 5.87668e-20)
(8.67433 0.729079 2.58789e-19)
(8.80061 0.749962 4.80128e-22)
(8.44563 0.821581 3.39414e-20)
(8.58584 0.846549 2.15627e-19)
(8.19614 0.922641 -2.21378e-19)
(8.35116 0.952072 -5.28648e-19)
(7.925 1.03277 -4.96598e-19)
(8.0958 1.06719 3.12327e-19)
(7.63127 1.15227 -8.05248e-20)
(7.81895 1.19242 -7.34029e-19)
(7.31395 1.28107 1.57525e-20)
(7.51963 1.32798 6.46677e-19)
(6.97195 1.41868 1.33826e-20)
(7.19679 1.47374 -3.29823e-19)
(6.60406 1.56395 3.28685e-19)
(6.84926 1.62904 -5.45254e-19)
(6.20888 1.71477 -2.53756e-19)
(6.47565 1.79248 9.00294e-19)
(5.78483 1.86794 -2.47317e-19)
(6.07423 1.96162 7.16806e-19)
(5.33009 2.01887 -2.81288e-19)
(5.64292 2.13275 -9.93954e-19)
(4.84257 2.16154 -5.72777e-19)
(5.17921 2.30071 -1.15667e-20)
(4.31992 2.2885 -2.86766e-18)
(4.68013 2.45878 -1.35751e-20)
(3.75958 2.39115 1.95183e-19)
(4.14241 2.59875 -2.54832e-18)
(3.15895 2.46041 5.25085e-18)
(3.56256 2.71111 3.00739e-18)
(2.51607 2.48839 -2.2088e-19)
(2.93719 2.78606 8.3139e-18)
(1.83149 2.47162 -2.72243e-18)
(2.26753 2.81497 -8.88621e-18)
(1.11227 2.40749 0)
(1.54644 2.79594 6.33047e-18)
(0.825888 2.71503 -1.37381e-17)
(9.98452 0.0867278 -1.48906e-20)
(9.98109 0.0618101 -1.50998e-20)
(9.95262 0.142252 0)
(9.9672 0.122164 -3.02079e-20)
(9.90333 0.197268 -4.8028e-20)
(9.93327 0.181349 0)
(9.83713 0.253614 -1.41525e-20)
(9.87697 0.241145 -4.73495e-20)
(9.75459 0.31258 1.49376e-20)
(9.80278 0.303214 3.20833e-20)
(9.65585 0.375026 -1.02726e-19)
(9.7131 0.368604 -7.67719e-23)
(9.54079 0.441734 -3.14691e-20)
(9.60801 0.438128 -8.53082e-20)
(9.40919 0.513528 1.06664e-19)
(9.48695 0.512647 8.63197e-20)
(9.26071 0.591242 -9.67853e-20)
(9.34951 0.593049 5.47097e-20)
(9.09492 0.675711 -1.46387e-19)
(9.19532 0.680221 -1.11838e-19)
(8.91129 0.767767 -4.06087e-20)
(9.02397 0.775046 3.8437e-20)
(8.70923 0.868237 -3.97882e-20)
(8.83492 0.878408 -7.95322e-20)
(8.48807 0.977927 -3.57084e-19)
(8.62756 0.991184 4.06473e-20)
(8.24711 1.0976 1.63603e-20)
(8.40121 1.11422 -6.53611e-19)
(7.98556 1.2279 6.09946e-20)
(8.1551 1.2483 7.08714e-19)
(7.70258 1.36929 1.15135e-20)
(7.88849 1.39408 -4.73397e-19)
(7.3972 1.52191 2.88199e-19)
(7.60042 1.55199 -3.84922e-19)
(7.06828 1.68547 -8.91459e-19)
(7.28977 1.72211 7.87054e-19)
(6.71445 1.85907 4.44638e-20)
(6.95525 1.90405 -9.82259e-19)
(6.33401 2.04095 1.8692e-18)
(6.59523 2.09676 9.00955e-19)
(5.92477 2.2282 -5.03357e-20)
(6.20759 2.29821 2.91954e-18)
(5.48399 2.41654 -7.12888e-19)
(5.78957 2.50516 -2.99639e-18)
(5.00827 2.60011 5.47982e-19)
(5.3377 2.71287 2.6659e-19)
(4.49361 2.77141 2.78323e-19)
(4.84765 2.91481 5.40137e-19)
(3.93565 2.92131 3.20158e-19)
(4.31458 3.10266 2.72454e-19)
(3.33018 3.0394 6.11882e-18)
(3.73341 3.26608 -2.32112e-18)
(2.67467 3.11519 -4.88602e-19)
(3.09946 3.39313 8.22341e-18)
(1.97073 3.1404 2.93452e-19)
(2.41346 3.47137 -6.13897e-18)
(1.22857 3.10385 -7.6519e-18)
(1.67278 3.49139 6.40717e-18)
(0.911266 3.42955 -1.40162e-17)
(9.9842 0.0980369 -3.06262e-20)
(9.98093 0.0691447 3.72077e-20)
(9.95249 0.161941 -2.97708e-20)
(9.96719 0.137316 -7.58067e-21)
(9.90435 0.225879 0)
(9.93399 0.205031 0)
(9.84002 0.291441 0)
(9.87927 0.273728 0)
(9.75993 0.359969 1.66147e-20)
(9.80741 0.344965 3.19923e-20)
(9.66424 0.432473 1.61558e-20)
(9.72071 0.419938 1.69906e-20)
(9.55287 0.509856 3.4874e-20)
(9.61923 0.499602 -3.22899e-20)
(9.42561 0.593039 3.39256e-20)
(9.50245 0.58491 -6.74786e-20)
(9.28218 0.682959 3.73781e-20)
(9.37001 0.676842 3.4901e-20)
(9.12217 0.780551 7.50548e-20)
(9.22157 0.776381 3.68789e-20)
(8.9451 0.886754 -2.07927e-21)
(9.05676 0.884514 -1.1242e-19)
(8.75042 1.0025 2.52599e-21)
(8.87509 1.00223 1.90743e-19)
(8.53749 1.12871 -2.65159e-19)
(8.67599 1.13052 2.83423e-19)
(8.30561 1.26626 5.6823e-20)
(8.45877 1.27035 -1.00474e-18)
(8.05403 1.41594 1.58716e-19)
(8.22269 1.42263 1.03584e-18)
(7.78186 1.57839 -8.68856e-19)
(7.96696 1.58818 -5.34787e-19)
(7.48807 1.75396 1.28758e-19)
(7.69055 1.76766 -6.78827e-19)
(7.17137 1.94264 6.74081e-19)
(7.39225 1.9614 1.373e-18)
(6.8302 2.14389 -1.01992e-19)
(7.07052 2.16936 -7.92439e-19)
(6.46252 2.3564 1.97601e-18)
(6.72351 2.39091 0)
(6.06566 2.57779 -9.66624e-20)
(6.34869 2.62462 3.58881e-18)
(5.6361 2.80434 -1.97957e-18)
(5.94268 2.86789 -5.48387e-18)
(5.16942 3.03067 2.61627e-19)
(5.5012 3.11667 1.97323e-18)
(4.66033 3.24942 5.31475e-19)
(5.01877 3.36492 1.13201e-20)
(4.10304 3.45103 -2.39484e-18)
(4.48916 3.60436 -2.05138e-18)
(3.49203 3.62355 -1.19063e-19)
(3.90584 3.82387 -8.91232e-20)
(2.82407 3.75317 2.44806e-18)
(3.26283 4.00913 2.47207e-18)
(2.10107 3.8257 9.00639e-20)
(2.55955 4.14319 7.49567e-20)
(1.33423 3.82025 -2.14709e-19)
(1.79656 4.20842 5.28834e-18)
(0.993149 4.16873 -5.97343e-18)
(9.98426 0.109281 5.95838e-20)
(9.98089 0.0764545 -2.21075e-20)
(9.95308 0.181222 2.23019e-20)
(9.96762 0.152213 2.2631e-20)
(9.90632 0.253669 0)
(9.93547 0.22804 3.01641e-20)
(9.84414 0.32807 3.24475e-20)
(9.88258 0.305229 0)
(9.76688 0.405788 3.21612e-20)
(9.81337 0.385258 9.46397e-20)
(9.67468 0.487955 -3.21515e-20)
(9.73003 0.469416 3.24892e-20)
(9.56751 0.575586 -1.35142e-19)
(9.63262 0.558779 6.64649e-20)
(9.44519 0.669693 -6.51112e-20)
(9.52066 0.654395 -3.03932e-19)
(9.30747 0.771306 3.44305e-20)
(9.39382 0.757331 1.7169e-19)
(9.15399 0.881455 -1.52634e-19)
(9.25183 0.868661 0)
(8.98431 1.00118 8.44617e-20)
(9.09435 0.989472 -1.50625e-19)
(8.7979 1.13154 4.72955e-19)
(8.92092 1.12086 2.29573e-19)
(8.59416 1.27355 -4.73188e-19)
(8.73102 1.26393 2.04677e-19)
(8.3724 1.42823 9.47945e-22)
(8.52397 1.41978 -7.03704e-19)
(8.13179 1.59653 3.22007e-19)
(8.29906 1.58948 6.86569e-19)
(7.87141 1.77928 -3.46561e-19)
(8.05536 1.77402 -2.64431e-19)
(7.59011 1.97712 5.91626e-19)
(7.79182 1.97432 0)
(7.28641 2.19034 -1.20705e-19)
(7.50711 2.19104 -6.64487e-20)
(6.95848 2.41883 -6.81029e-19)
(7.19947 2.42452 1.59715e-19)
(6.60394 2.66185 1.65585e-18)
(6.86668 2.67466 -9.74178e-20)
(6.21961 2.91774 -1.90398e-18)
(6.50581 2.94073 3.48886e-18)
(5.80128 3.18357 -1.44775e-18)
(6.11291 3.22102 -3.45624e-18)
(5.34358 3.45466 1.70267e-18)
(5.68291 3.51236 1.23868e-19)
(4.83997 3.72406 -2.59406e-18)
(5.20927 3.80957 1.58485e-18)
(4.28318 3.98193 2.74006e-19)
(4.68422 4.10468 -4.32543e-18)
(3.66623 4.21479 2.52487e-18)
(4.09945 4.38598 2.54716e-18)
(2.98443 4.40521 7.57362e-20)
(3.447 4.63695 6.37614e-20)
(2.23893 4.53233 5.33144e-18)
(2.72369 4.83562 4.55383e-21)
(1.44069 4.56251 -6.06899e-19)
(1.93066 4.95535 5.17465e-18)
(1.07704 4.94008 -5.66827e-18)
(9.98456 0.120314 -5.85024e-20)
(9.98093 0.0836246 -3.83362e-22)
(9.95422 0.199963 3.06025e-20)
(9.96835 0.166713 1.4758e-20)
(9.90909 0.28051 2.97336e-20)
(9.93754 0.250253 7.50425e-20)
(9.84934 0.363345 6.35327e-20)
(9.88677 0.335509 -3.02402e-20)
(9.77524 0.449846 9.41013e-20)
(9.82049 0.423911 3.19614e-20)
(9.68695 0.541237 1.31577e-19)
(9.74087 0.516814 -1.26453e-19)
(9.58447 0.638632 -1.07423e-19)
(9.64796 0.615392 1.95323e-19)
(9.46765 0.743134 -6.06444e-20)
(9.54132 0.720785 -2.02072e-19)
(9.33628 0.855856 1.34952e-19)
(9.42067 0.834142 1.02717e-19)
(9.19006 0.977925 0)
(9.28579 0.956625 3.46482e-20)
(9.02857 1.11048 -4.4336e-22)
(9.13638 1.08941 0)
(8.85135 1.25469 -3.91177e-20)
(8.97205 1.23371 2.59836e-19)
(8.65782 1.41171 -3.76868e-20)
(8.7923 1.39074 -2.62766e-19)
(8.44731 1.58271 0)
(8.59651 1.56174 0)
(8.21895 1.7688 8.78247e-20)
(8.38397 1.74796 0)
(7.97175 1.97105 8.5635e-20)
(8.15372 1.95061 8.6746e-20)
(7.70447 2.19041 -6.59196e-19)
(7.90465 2.17085 0)
(7.4155 2.42758 2.16528e-19)
(7.63536 2.40974 6.03287e-20)
(7.10268 2.68294 7.41037e-19)
(7.34391 2.6681 8.60184e-19)
(6.76324 2.95641 1.77749e-18)
(7.02774 2.94646 -6.52869e-19)
(6.3935 3.24719 1.85997e-18)
(6.68349 3.24492 1.66079e-18)
(5.98858 3.55337 -1.84469e-18)
(6.30673 3.56278 1.72237e-18)
(5.5422 3.87132 2.03235e-20)
(5.89155 3.8981 -1.83285e-18)
(5.04649 4.19489 -2.06024e-19)
(5.43039 4.24695 1.60161e-19)
(4.49232 4.51436 -1.98399e-18)
(4.91372 4.60229 -1.89046e-18)
(3.87037 4.81509 6.002e-20)
(4.33067 4.95247 -1.74454e-19)
(3.1731 5.07611 -8.23323e-21)
(3.6699 5.27939 3.72981e-21)
(2.39884 5.26939 -8.7901e-20)
(2.92357 5.55622 -2.0565e-18)
(1.55586 5.3445 -1.79458e-20)
(2.08893 5.74677 4.23856e-18)
(1.16955 5.76725 -4.60617e-18)
(9.98504 0.131023 7.30924e-20)
(9.98101 0.0905731 5.87593e-20)
(9.95578 0.218039 6.00973e-20)
(9.96931 0.180697 -4.41484e-20)
(9.91252 0.306273 1.35843e-20)
(9.94009 0.271553 1.5025e-20)
(9.85547 0.397109 -6.09208e-20)
(9.89169 0.364433 -3.00255e-20)
(9.78486 0.491943 -1.90817e-19)
(9.82862 0.460755 1.00001e-22)
(9.70087 0.592074 -5.82657e-20)
(9.75306 0.561921 -1.27242e-19)
(9.60352 0.698702 9.52379e-20)
(9.66505 0.66919 4.23617e-22)
(9.49273 0.813014 -3.45567e-20)
(9.5642 0.783783 6.48585e-20)
(9.36831 0.936204 1.47889e-21)
(9.45028 0.906924 -6.72728e-20)
(9.23003 1.06949 3.4192e-20)
(9.32312 1.03986 1.37985e-19)
(9.07753 1.21411 2.63742e-19)
(9.1825 1.18385 -1.04412e-19)
(8.91039 1.37133 2.94081e-20)
(9.02808 1.34021 2.6036e-19)
(8.72809 1.54246 -2.21734e-19)
(8.85942 1.51028 -2.24665e-19)
(8.52997 1.72881 0)
(8.67596 1.69544 7.52198e-20)
(8.31522 1.93172 0)
(8.47703 1.89713 0)
(8.08281 2.1525 0)
(8.26173 2.11678 0)
(7.83142 2.39243 7.2059e-19)
(8.02892 2.35585 8.12242e-20)
(7.55935 2.65269 7.13994e-19)
(7.77715 2.61582 6.28972e-19)
(7.26425 2.93427 -5.51801e-19)
(7.50442 2.89808 -7.73849e-20)
(6.94298 3.23785 -7.44129e-19)
(7.20798 3.20389 -1.98661e-20)
(6.59144 3.56365 1.52379e-18)
(6.88418 3.53427 -8.20874e-19)
(6.20412 3.91099 1.69838e-18)
(6.5282 3.88977 1.60217e-18)
(5.77379 4.27772 -1.67241e-18)
(6.13338 4.26996 1.54101e-18)
(5.29113 4.65916 -1.5454e-18)
(5.69106 4.67279 -3.17053e-18)
(4.74462 5.04658 -6.23066e-20)
(5.18976 5.09312 1.10882e-19)
(4.12127 5.42519 -2.28936e-19)
(4.6152 5.52077 -1.18114e-19)
(3.40848 5.77126 -2.07081e-18)
(3.95077 5.93762 -6.01511e-20)
(2.59843 6.04978 2.3584e-18)
(3.18108 6.31323 -2.00017e-18)
(1.69256 6.19047 -4.59586e-19)
(2.29325 6.60227 2.41112e-18)
(1.28391 6.69013 -2.6074e-18)
(9.98565 0.141319 -5.99069e-20)
(9.98114 0.0972384 -2.93404e-20)
(9.95768 0.23534 -8.83463e-20)
(9.97047 0.194066 -2.95937e-20)
(9.91652 0.330836 -2.92104e-20)
(9.94304 0.291828 -5.92361e-20)
(9.86241 0.429213 3.14387e-20)
(9.89724 0.391874 3.02003e-20)
(9.7956 0.531897 6.19157e-20)
(9.83765 0.495633 3.0793e-20)
(9.71626 0.640244 -6.67787e-20)
(9.76646 0.604547 -6.18386e-20)
(9.62446 0.755532 -2.90898e-20)
(9.68372 0.719941 -9.6699e-20)
(9.52017 0.879021 3.03661e-20)
(9.58908 0.84311 1.28735e-19)
(9.40327 1.01198 7.19853e-20)
(9.48238 0.975348 3.2351e-20)
(9.27357 1.15571 -3.81365e-21)
(9.36352 1.11797 2.3827e-19)
(9.13079 1.31154 -1.03064e-19)
(9.23234 1.27233 -3.79272e-19)
(8.97458 1.48085 0)
(9.08858 1.43982 -2.13038e-19)
(8.80449 1.66506 7.61934e-20)
(8.93189 1.62189 2.85463e-19)
(8.61993 1.86568 7.42911e-20)
(8.76181 1.82009 9.99821e-22)
(8.42016 2.08423 0)
(8.57773 2.03601 -3.7814e-19)
(8.20419 2.3223 8.22354e-20)
(8.37885 2.27134 3.06083e-19)
(7.97071 2.58154 -3.9788e-21)
(8.16412 2.52784 -7.10995e-19)
(7.71798 2.86365 -1.70898e-19)
(7.93212 2.80742 6.37722e-19)
(7.44361 3.17028 4.55735e-19)
(7.68091 3.11208 -1.6844e-19)
(7.14437 3.50302 -1.04975e-19)
(7.40779 3.44387 5.39161e-19)
(6.81585 3.86326 -7.16939e-19)
(7.10906 3.80485 5.36752e-20)
(6.45207 4.25185 1.44441e-18)
(6.77969 4.19703 -8.23685e-19)
(6.04493 4.66862 -5.64911e-21)
(6.41263 4.62193 1.52203e-18)
(5.58354 5.11127 -1.47907e-18)
(5.99823 5.08008 -1.49822e-18)
(5.05357 5.57357 5.26708e-20)
(5.52311 5.56961 0)
(4.43706 6.04258 5.14473e-20)
(4.96916 6.08398 6.29628e-20)
(3.71347 6.49413 -1.3294e-20)
(4.31254 6.60823 0)
(2.86374 6.88742 -1.8883e-18)
(3.52606 7.11185 -9.45326e-22)
(1.87721 7.12982 2.07582e-19)
(2.57731 7.54116 -1.84882e-18)
(1.44249 7.74283 2.00366e-18)
(9.98636 0.151129 9.72146e-22)
(9.98129 0.103573 -2.91562e-20)
(9.95986 0.25177 -9.08042e-22)
(9.97177 0.206736 1.48525e-20)
(9.92099 0.354084 1.4505e-21)
(9.94632 0.310979 1.45659e-20)
(9.87006 0.459522 2.95624e-20)
(9.90334 0.417716 5.96011e-20)
(9.80731 0.56954 -9.42559e-20)
(9.84746 0.528402 -2.99255e-20)
(9.73295 0.685546 -9.22392e-20)
(9.78091 0.644515 -1.23283e-19)
(9.64708 0.808879 6.41995e-20)
(9.70376 0.767435 -5.4455e-22)
(9.54973 0.940866 1.29429e-19)
(9.61572 0.898518 6.38763e-20)
(9.44085 1.08284 2.01387e-19)
(9.51669 1.03912 6.5148e-20)
(9.32031 1.23618 -1.45292e-19)
(9.40663 1.19061 1.34946e-19)
(9.18793 1.40229 -4.87154e-19)
(9.28549 1.35442 -3.08659e-19)
(9.04345 1.58266 7.87739e-20)
(9.15309 1.53202 -1.4412e-19)
(8.8865 1.77882 2.06721e-19)
(9.00918 1.72497 7.34566e-20)
(8.71662 1.99244 -4.56258e-19)
(8.85343 1.93494 2.09194e-19)
(8.53316 2.22524 -6.37817e-20)
(8.68537 2.16368 -3.04777e-19)
(8.33526 2.47911 -4.99492e-19)
(8.50435 2.41311 6.77879e-19)
(8.12173 2.75604 -5.36556e-20)
(8.30947 2.68531 -4.09187e-19)
(7.89093 3.05825 6.31129e-19)
(8.0995 2.98259 1.11015e-19)
(7.64063 3.38812 -7.71867e-20)
(7.87271 3.30752 -1.82235e-21)
(7.3677 3.74818 6.92887e-19)
(7.62668 3.66297 4.42326e-20)
(7.06778 4.14114 -6.19983e-20)
(7.358 4.05212 6.82883e-19)
(6.73478 4.56973 -7.21834e-19)
(7.06185 4.47858 -6.89024e-19)
(6.3601 5.03631 -2.3244e-21)
(6.73134 4.9462 3.90102e-20)
(5.93162 5.54209 -2.27413e-21)
(6.35653 5.45884 -4.35263e-20)
(5.43226 6.08542 1.09903e-20)
(5.92286 6.01945 0)
(4.83831 6.65872 1.07268e-20)
(5.40898 6.62824 -1.24862e-18)
(4.11807 7.2424 1.23897e-20)
(4.78294 7.27885 1.26523e-18)
(3.23307 7.79479 1.20306e-20)
(4.00089 7.94915 1.22253e-20)
(2.14476 8.19955 0)
(2.9959 8.58576 5.52159e-22)
(1.68608 8.99414 -1.30266e-18)
(9.98716 0.160394 -1.46695e-20)
(9.98147 0.109537 7.13191e-21)
(9.96227 0.267243 3.03455e-20)
(9.97319 0.21864 3.55217e-20)
(9.92587 0.375914 7.33614e-20)
(9.94987 0.328916 7.27527e-20)
(9.87831 0.487911 -1.12798e-21)
(9.90989 0.441852 2.96187e-20)
(9.81987 0.604721 -6.0246e-20)
(9.85794 0.558934 2.94605e-20)
(9.75078 0.727795 -2.9899e-20)
(9.79627 0.68167 -8.9972e-20)
(9.67118 0.858524 0)
(9.72501 0.811485 -6.12888e-20)
(9.58116 0.998288 -3.97681e-22)
(9.6439 0.949782 6.18434e-20)
(9.48074 1.14848 -3.87271e-22)
(9.55291 1.09796 -3.21776e-20)
(9.36988 1.31053 -3.4197e-20)
(9.45211 1.25746 -1.293e-19)
(9.2485 1.48592 3.65482e-20)
(9.34151 1.42974 1.29034e-19)
(9.11645 1.67622 -1.46722e-19)
(9.22107 1.61636 3.37278e-19)
(8.9735 1.88307 7.75128e-20)
(9.09067 1.81895 -2.77676e-19)
(8.81931 2.10827 3.54465e-19)
(8.95011 2.03929 8.75921e-21)
(8.65341 2.35374 4.48873e-19)
(8.79911 2.27927 7.35459e-20)
(8.47513 2.62159 7.5555e-19)
(8.63723 2.541 1.3146e-20)
(8.28351 2.91419 -2.3835e-19)
(8.46383 2.82682 3.81164e-19)
(8.0772 3.23422 -5.23641e-19)
(8.278 3.13941 -3.19641e-19)
(7.8543 3.58472 1.20121e-19)
(8.0784 3.48184 7.90775e-20)
(7.6121 3.9692 4.10274e-20)
(7.86314 3.85771 7.92583e-20)
(7.34672 4.39173 4.13213e-20)
(7.62945 4.2713 -5.92648e-19)
(7.05253 4.85708 7.98801e-20)
(7.37334 4.72779 6.33356e-19)
(6.7213 5.37065 -3.0567e-21)
(7.08889 5.23348 1.30883e-21)
(6.34077 5.93826 -4.0739e-20)
(6.7672 5.79605 5.29328e-19)
(5.89238 6.56528 -1.27484e-18)
(6.3945 6.42465 -5.7368e-19)
(5.34752 7.25454 3.84478e-20)
(5.94889 7.12956 -1.26038e-18)
(4.66176 8.00073 1.2479e-18)
(5.39334 7.92083 1.26593e-18)
(3.76717 8.77697 5.61141e-22)
(4.66672 8.8016 0)
(2.56601 9.45743 -1.32139e-18)
(3.64958 9.74887 1.19704e-20)
(2.10324 10.5591 -2.17355e-18)
(9.98802 0.169066 5.76637e-20)
(9.98167 0.115102 7.13271e-21)
(9.96486 0.281687 7.84928e-20)
(9.97471 0.229718 -7.1277e-21)
(9.93109 0.396236 2.83942e-20)
(9.95365 0.345563 1.82549e-22)
(9.88709 0.514271 6.02247e-20)
(9.91682 0.464191 -5.78571e-20)
(9.83317 0.63731 -1.90598e-21)
(9.86897 0.587117 8.86139e-20)
(9.76958 0.766836 -1.20978e-19)
(9.8124 0.715877 -2.98683e-20)
(9.69654 0.904282 2.20909e-21)
(9.74726 0.851929 -9.11834e-20)
(9.61418 1.05107 2.88188e-20)
(9.67337 0.996711 -6.0671e-20)
(9.5226 1.20864 -1.62379e-19)
(9.59075 1.15166 9.1698e-20)
(9.42188 1.37845 3.72657e-20)
(9.49957 1.31824 -9.80847e-20)
(9.31202 1.56206 4.32485e-19)
(9.39995 1.49797 1.3059e-19)
(9.193 1.76108 1.98668e-19)
(9.29198 1.69245 2.68355e-19)
(9.06476 1.97725 -3.42887e-19)
(9.17567 1.90336 -6.55133e-20)
(8.92714 2.21247 -2.71495e-19)
(9.05102 2.13254 -2.74897e-19)
(8.77988 2.4688 -3.63035e-19)
(8.91795 2.38201 0)
(8.62259 2.74857 -3.5713e-19)
(8.7763 2.65401 -3.58785e-19)
(8.45465 3.05442 2.91917e-19)
(8.62577 2.95107 2.40564e-19)
(8.27513 3.38941 2.87832e-19)
(8.46587 3.27614 1.37232e-20)
(8.0827 3.75716 3.81786e-20)
(8.29584 3.63268 0)
(7.87539 4.162 -5.62007e-19)
(8.11454 4.02485 -5.5207e-19)
(7.65028 4.60927 1.21988e-20)
(7.92025 4.45778 -4.58152e-21)
(7.40303 5.10565 5.48016e-19)
(7.71041 4.93795 5.92699e-19)
(7.12702 5.65964 5.39722e-19)
(7.4811 5.4738 -4.57834e-20)
(6.81189 6.28221 -1.5056e-20)
(7.22628 6.07656 5.70704e-19)
(6.44081 6.98757 -5.67195e-19)
(6.93616 6.76168 -5.69752e-19)
(5.98508 7.7943 -2.48174e-22)
(6.5943 7.55125 -1.12957e-23)
(5.39297 8.72599 0)
(6.16997 8.47871 1.19184e-20)
(4.56467 9.80907 1.15891e-20)
(5.60417 9.59688 0)
(3.29354 11.0025 -8.68752e-19)
(4.74437 10.9918 6.58966e-21)
(2.91186 12.6876 -8.54397e-19)
(9.98893 0.177104 -5.79137e-20)
(9.98188 0.120244 -5.28709e-20)
(9.96759 0.29504 -8.53378e-20)
(9.9763 0.239926 -5.82023e-20)
(9.93658 0.414969 -8.68736e-20)
(9.95761 0.360858 -2.23259e-21)
(9.89629 0.538498 -2.74428e-20)
(9.92408 0.484655 -5.89502e-20)
(9.84706 0.66717 5.90249e-20)
(9.88049 0.612859 2.97697e-20)
(9.78919 0.802498 -9.00953e-22)
(9.8292 0.747026 3.03594e-20)
(9.72293 0.945941 -1.53665e-19)
(9.77042 0.888636 -2.24184e-21)
(9.64851 1.09895 4.20386e-21)
(9.704 1.03915 -1.24846e-19)
(9.56609 1.26299 1.53538e-19)
(9.63006 1.20003 2.41497e-19)
(9.47585 1.43957 -1.81733e-21)
(9.54886 1.37276 -1.14089e-19)
(9.37793 1.63025 -3.18342e-20)
(9.46064 1.55887 -3.49476e-21)
(9.27244 1.8367 0)
(9.36562 1.75998 1.20547e-19)
(9.1595 2.06072 0)
(9.26398 1.97781 1.22917e-19)
(9.03915 2.30425 0)
(9.15592 2.21424 -4.6144e-19)
(8.91141 2.56946 0)
(9.04161 2.47133 -1.41086e-21)
(8.7762 2.8588 2.45965e-19)
(8.9212 2.75139 2.18744e-19)
(8.63335 3.17512 -4.02941e-20)
(8.7948 3.05707 2.48726e-19)
(8.48249 3.52172 -2.74365e-19)
(8.66242 3.39144 -3.00414e-22)
(8.32302 3.9026 -5.96575e-19)
(8.52403 3.75819 -5.01767e-19)
(8.15402 4.32267 1.09877e-20)
(8.37942 4.16176 -3.1938e-19)
(7.97403 4.78814 5.81881e-19)
(8.22824 4.60773 5.68006e-19)
(7.78077 5.3071 -8.17937e-21)
(8.06985 5.10333 -7.28352e-21)
(7.5707 5.89048 -7.99786e-21)
(7.9033 5.65817 -7.19869e-22)
(7.33805 6.55347 4.082e-21)
(7.7271 6.28558 2.14692e-19)
(7.07301 7.31842 4.228e-21)
(7.53905 7.00496 -2.13913e-19)
(6.75748 8.22057 1.23023e-20)
(7.33625 7.84655 2.43018e-22)
(6.35439 9.32201 1.17538e-20)
(7.11515 8.86279 1.08085e-21)
(5.77308 10.758 -4.71728e-21)
(6.88417 10.1605 -3.98882e-20)
(4.72549 13.0147 1.18077e-20)
(6.79848 12.029 3.35142e-20)
(5.90783 15.9592 3.77136e-19)
(-0.380116 0.28854 -4.04385e-19)
(-0.183825 0.336278 -1.3523e-18)
(-1.04617 0.427415 6.43904e-19)
(-0.775536 0.585736 6.33597e-19)
(-1.88599 0.483248 -6.55468e-19)
(-1.58703 0.71229 -2.05606e-18)
(-2.82514 0.499955 5.09653e-20)
(-2.49546 0.778634 1.28987e-18)
(-3.81942 0.49701 7.56347e-19)
(-3.46582 0.810473 1.64957e-18)
(-4.8402 0.482829 -2.05586e-19)
(-4.47072 0.819969 -1.50092e-18)
(-5.86656 0.461087 1.26485e-20)
(-5.48866 0.812849 6.02786e-19)
(-6.88117 0.433473 2.20642e-20)
(-6.50203 0.792012 6.90176e-19)
(-7.86804 0.400761 -2.26047e-19)
(-7.49487 0.758859 -6.44883e-19)
(-8.81115 0.363285 1.5344e-19)
(-8.45127 0.713899 0)
(-9.69373 0.321192 3.9396e-20)
(-9.35481 0.657225 1.26139e-19)
(-10.4979 0.27458 -1.50513e-19)
(-10.188 0.588767 -5.88284e-20)
(-11.2048 0.22359 -6.29309e-20)
(-10.9322 0.508519 -1.10493e-21)
(-11.7947 0.168491 -3.19631e-20)
(-11.5675 0.416756 -1.26759e-19)
(-12.2478 0.109662 -1.5715e-20)
(-12.0739 0.314278 9.17162e-20)
(-12.5453 0.0474562 1.44991e-20)
(-12.4315 0.202537 -1.69106e-22)
(-12.6696 -0.0179284 3.0127e-20)
(-12.6218 0.0829435 1.55419e-19)
(-12.6062 -0.0862776 -3.01968e-20)
(-12.6275 -0.0416049 -1.55318e-19)
(-12.3439 -0.155935 -3.04223e-20)
(-12.4397 -0.16866 5.54262e-20)
(-11.8797 -0.22411 -1.36116e-20)
(-12.0538 -0.292692 -9.40221e-20)
(-11.2182 -0.288624 -1.30684e-20)
(-11.4709 -0.408999 5.06427e-20)
(-10.3696 -0.348026 -4.73216e-21)
(-10.6987 -0.514645 -8.97749e-21)
(-9.3476 -0.401566 -4.82617e-21)
(-9.74932 -0.607783 1.0735e-20)
(-8.16856 -0.449373 3.12375e-21)
(-8.63811 -0.687749 -7.82821e-21)
(-6.84846 -0.493079 3.18502e-21)
(-7.38129 -0.755336 2.21698e-22)
(-5.39865 -0.538118 -5.19145e-22)
(-5.99234 -0.813824 0)
(-3.81169 -0.59873 7.16224e-22)
(-4.47807 -0.874077 -3.53751e-21)
(-2.02186 -0.698297 1.29919e-21)
(-2.84882 -0.96747 6.34996e-22)
(0.147234 -0.901579 -1.44656e-22)
(-1.14593 -1.15092 1.04648e-22)
(1.9072 -1.49085 3.98239e-22)
(-0.574129 0.763053 -3.23e-19)
(-0.279471 0.917786 2.70071e-19)
(-1.32436 0.991467 -2.02181e-18)
(-0.932786 1.26555 0)
(-2.18135 1.11239 -1.6163e-19)
(-1.76938 1.45367 -2.06384e-18)
(-3.11333 1.17828 2.88416e-18)
(-2.66556 1.56183 1.95784e-18)
(-4.09151 1.2077 -5.73277e-19)
(-3.60951 1.61538 9.17437e-19)
(-5.09239 1.2105 -7.14595e-19)
(-4.58095 1.62935 -1.72051e-18)
(-6.09682 1.19179 1.27983e-18)
(-5.56211 1.61213 -2.84463e-20)
(-7.08808 1.15417 3.76743e-20)
(-6.53746 1.56839 1.25164e-18)
(-8.05022 1.09875 -4.24717e-19)
(-7.49209 1.50042 -4.20861e-19)
(-8.96713 1.02578 -2.83944e-20)
(-8.41082 1.40904 0)
(-9.82188 0.935142 3.00998e-20)
(-9.27768 1.29434 4.42688e-19)
(-10.5964 0.826643 9.00356e-20)
(-10.0754 1.15606 -9.38643e-19)