/*--------------------------------*- C++ -*----------------------------------*\
| =========                 |                                                 |
| \\      /  F ield         | OpenFOAM: The Open Source CFD Toolbox           |
|  \\    /   O peration     | Version:  4.1                                   |
|   \\  /    A nd           | Web:      www.OpenFOAM.org                      |
|    \\/     M anipulation  |                                                 |
\*---------------------------------------------------------------------------*/
FoamFile
{
    version     2.0;
    format      ascii;
    class       volVectorField;
    location    "2.5";
    object      cellDisplacement;
}
// * * * * * * * * * * * * * * * * * * * * * * * * * * * * * * * * * * * * * //

dimensions      [0 1 0 0 0 0 0];

internalField   nonuniform List<vector> 
2790
(
(0.0134488 2.92886e-05 0)
(0.0382391 8.46115e-05 0)
(0.0591169 0.000134497 0)
(0.0764313 0.000180582 0)
(0.090581 0.000224388 0)
(0.101914 0.000267056 0)
(0.110734 0.000309493 0)
(0.117307 0.000352451 0)
(0.121866 0.000396536 0)
(0.124615 0.000442153 0)
(0.125735 0.000489825 0)
(0.125389 0.00054018 0)
(0.123723 0.000594903 0)
(0.120866 0.000652016 0)
(0.116936 0.000713301 0)
(0.112044 0.000779341 0)
(0.106292 0.000850661 0)
(0.0997765 0.000927851 0)
(0.0925933 0.00101158 0)
(0.0848358 0.0011026 0)
(0.0765995 0.00120176 0)
(0.0679839 0.00131011 0)
(0.0590968 0.00142889 0)
(0.0500586 0.00155957 0)
(0.0410069 0.00170344 0)
(0.0321134 0.00186333 0)
(0.0236341 0.00205093 0)
(0.0159363 0.00227714 0)
(0.00962658 0.00256505 0)
(0.00604815 0.00290832 0)
(0.0134726 8.78974e-05 0)
(0.0383101 0.000253945 0)
(0.0592317 0.000403731 0)
(0.0765883 0.000542094 0)
(0.0907825 0.000673643 0)
(0.102163 0.000801797 0)
(0.111035 0.000929273 0)
(0.117664 0.00105834 0)
(0.122284 0.00119087 0)
(0.1251 0.00132798 0)
(0.126295 0.00147124 0)
(0.12603 0.00162206 0)
(0.124453 0.00178156 0)
(0.121697 0.00195182 0)
(0.11788 0.00213506 0)
(0.113114 0.00233257 0)
(0.107503 0.00254588 0)
(0.101147 0.00277678 0)
(0.0941432 0.00302733 0)
(0.0865896 0.00329986 0)
(0.0785861 0.0035971 0)
(0.0702391 0.00392247 0)
(0.0616662 0.00428049 0)
(0.0530057 0.00467749 0)
(0.0444126 0.0051188 0)
(0.0360598 0.00561242 0)
(0.0282172 0.00617021 0)
(0.0213043 0.00681857 0)
(0.0161317 0.00763353 0)
(0.0141409 0.00855858 0)
(0.0135201 0.000146267 0)
(0.0384524 0.000422582 0)
(0.0594606 0.000671961 0)
(0.0769 0.000902182 0)
(0.0911828 0.00112109 0)
(0.102658 0.00133433 0)
(0.111632 0.0015464 0)
(0.118372 0.00176111 0)
(0.123114 0.00198175 0)
(0.126064 0.00220977 0)
(0.127407 0.00244798 0)
(0.127308 0.00269835 0)
(0.125911 0.00296142 0)
(0.123356 0.00324368 0)
(0.119764 0.00354776 0)
(0.115251 0.00387543 0)
(0.109922 0.00422916 0)
(0.103883 0.00461192 0)
(0.0972372 0.00502721 0)
(0.0900886 0.00547883 0)
(0.0825453 0.00597121 0)
(0.0747241 0.00650991 0)
(0.0667546 0.00710236 0)
(0.0588149 0.00776348 0)
(0.0510954 0.00850165 0)
(0.0438412 0.0093305 0)
(0.0373676 0.0102613 0)
(0.032064 0.011323 0)
(0.0287768 0.0125585 0)
(0.0294649 0.0139471 0)
(0.0135903 0.000204239 0)
(0.0386652 0.000590042 0)
(0.0598017 0.000937224 0)
(0.0773628 0.00125804 0)
(0.0917777 0.00156312 0)
(0.103393 0.00186017 0)
(0.112518 0.00215543 0)
(0.119424 0.00245421 0)
(0.124348 0.00276172 0)
(0.127495 0.00307877 0)
(0.129058 0.00341003 0)
(0.129204 0.00375855 0)
(0.128082 0.00412687 0)
(0.125825 0.00451881 0)
(0.12257 0.00494172 0)
(0.118433 0.00539709 0)
(0.113526 0.00588833 0)
(0.107961 0.00641967 0)
(0.101849 0.00699627 0)
(0.0953084 0.00762336 0)
(0.0884588 0.00830705 0)
(0.0814354 0.00905521 0)
(0.074383 0.00987997 0)
(0.0674894 0.0107914 0)
(0.0610088 0.0118027 0)
(0.0552631 0.0129366 0)
(0.0507198 0.0142215 0)
(0.0479337 0.015674 0)
(0.0475171 0.0172815 0)
(0.0517193 0.0190092 0)
(0.0136819 0.000261569 0)
(0.0389279 0.000755429 0)
(0.0602352 0.00119932 0)
(0.0779739 0.00160992 0)
(0.0925658 0.00200013 0)
(0.104368 0.00237987 0)
(0.113693 0.00275704 0)
(0.120819 0.00313821 0)
(0.125976 0.00352818 0)
(0.129382 0.00393175 0)
(0.131235 0.00435383 0)
(0.131705 0.00479824 0)
(0.130945 0.00526886 0)
(0.129096 0.00577148 0)
(0.126288 0.00631089 0)
(0.122649 0.00689045 0)
(0.1183 0.0075149 0)
(0.113358 0.00818964 0)
(0.107951 0.00892217 0)
(0.102209 0.00971866 0)
(0.0962676 0.0105865 0)
(0.090274 0.0115354 0)
(0.0844483 0.0125836 0)
(0.0789824 0.0137342 0)
(0.074176 0.0150075 0)
(0.0703864 0.0164236 0)
(0.0682055 0.0180083 0)
(0.0685488 0.0197925 0)
(0.0721765 0.0217629 0)
(0.0805193 0.0237077 0)
(0.0137948 0.000317775 0)
(0.0392571 0.000917675 0)
(0.0607765 0.00145738 0)
(0.0787304 0.00195631 0)
(0.0935411 0.00243019 0)
(0.105574 0.00289105 0)
(0.115146 0.00334838 0)
(0.122537 0.0038097 0)
(0.127985 0.00428009 0)
(0.131718 0.00476827 0)
(0.133931 0.00527872 0)
(0.1348 0.00581625 0)
(0.134484 0.00638608 0)
(0.133134 0.0069954 0)
(0.13088 0.00764654 0)
(0.127859 0.00834532 0)
(0.1242 0.00909726 0)
(0.120024 0.00990807 0)
(0.115491 0.0107898 0)
(0.110744 0.0117482 0)
(0.105941 0.0127918 0)
(0.101245 0.0139337 0)
(0.0968819 0.0151858 0)
(0.0931314 0.0165588 0)
(0.0904134 0.0180802 0)
(0.0891314 0.0197604 0)
(0.0898702 0.0216154 0)
(0.0938083 0.0236755 0)
(0.102232 0.0259241 0)
(0.115368 0.0280108 0)
(0.0139285 0.000372662 0)
(0.0396491 0.00107613 0)
(0.0614185 0.00170916 0)
(0.0796235 0.0022941 0)
(0.0946918 0.00284932 0)
(0.106996 0.00338888 0)
(0.11686 0.00392385 0)
(0.124567 0.00446305 0)
(0.130366 0.00501369 0)
(0.134483 0.00558379 0)
(0.137121 0.00617937 0)
(0.138461 0.00680614 0)
(0.138667 0.00746982 0)
(0.137889 0.00817625 0)
(0.136285 0.0089333 0)
(0.133993 0.00974533 0)
(0.131159 0.0106191 0)
(0.127917 0.0115635 0)
(0.124416 0.0125869 0)
(0.120841 0.0136977 0)
(0.117372 0.0149067 0)
(0.114223 0.0162274 0)
(0.111651 0.0176698 0)
(0.10998 0.0192529 0)
(0.109629 0.0209911 0)
(0.111243 0.0229021 0)
(0.115559 0.0250012 0)
(0.123575 0.0272764 0)
(0.137271 0.0297122 0)
(0.155768 0.0318846 0)
(0.0140821 0.000426032 0)
(0.0400999 0.00123018 0)
(0.0621554 0.0019538 0)
(0.0806465 0.00262213 0)
(0.0960091 0.00325605 0)
(0.108624 0.00387162 0)
(0.118822 0.00448144 0)
(0.126891 0.00509563 0)
(0.133089 0.00572275 0)
(0.137645 0.00637108 0)
(0.140768 0.00704776 0)
(0.142645 0.00775924 0)
(0.143451 0.00851186 0)
(0.14335 0.009314 0)
(0.142492 0.0101714 0)
(0.141031 0.0110896 0)
(0.139134 0.0120782 0)
(0.136961 0.0131466 0)
(0.134642 0.0142984 0)
(0.13242 0.0155497 0)
(0.130494 0.0169095 0)
(0.129111 0.0183929 0)
(0.128555 0.02001 0)
(0.129321 0.0217823 0)
(0.13177 0.0237115 0)
(0.136616 0.0258157 0)
(0.144969 0.0281074 0)
(0.157719 0.0305464 0)
(0.17709 0.0330714 0)
(0.201151 0.0352124 0)
(0.0142548 0.000477932 0)
(0.0406075 0.00137998 0)
(0.0629847 0.0021916 0)
(0.0817969 0.00294082 0)
(0.09749 0.00365095 0)
(0.110454 0.0043399 0)
(0.121027 0.00502182 0)
(0.129505 0.00570796 0)
(0.136148 0.00640792 0)
(0.141195 0.00713053 0)
(0.144861 0.00788392 0)
(0.147339 0.00867517 0)
(0.148813 0.00951168 0)
(0.149467 0.0104033 0)
(0.149441 0.0113525 0)
(0.148902 0.0123673 0)
(0.14805 0.0134602 0)
(0.147053 0.0146379 0)
(0.146084 0.0159106 0)
(0.145375 0.0172898 0)
(0.145167 0.0187845 0)
(0.14581 0.0204133 0)
(0.14758 0.0221851 0)
(0.150966 0.0241131 0)
(0.156608 0.0262048 0)
(0.165257 0.0284715 0)
(0.177982 0.0308939 0)
(0.19621 0.0334336 0)
(0.221221 0.0359121 0)
(0.250622 0.0378657 0)
(0.0144454 0.00052817 0)
(0.0411682 0.00152497 0)
(0.0639 0.00242164 0)
(0.0830657 0.00324892 0)
(0.0991227 0.00403238 0)
(0.112471 0.00479171 0)
(0.123458 0.00554258 0)
(0.132384 0.00629718 0)
(0.139517 0.00706591 0)
(0.145101 0.00785817 0)
(0.149362 0.00868329 0)
(0.152499 0.00954839 0)
(0.154696 0.0104609 0)
(0.156158 0.0114318 0)
(0.157047 0.0124649 0)
(0.157546 0.0135707 0)
(0.157836 0.0147579 0)
(0.158128 0.0160348 0)
(0.158629 0.0174125 0)
(0.159597 0.0189015 0)
(0.16131 0.0205155 0)
(0.164119 0.0222668 0)
(0.168457 0.0241651 0)
(0.174808 0.0262187 0)
(0.183897 0.0284361 0)
(0.196781 0.0308173 0)
(0.214309 0.0333121 0)
(0.23833 0.0358548 0)
(0.268916 0.0381667 0)
(0.303146 0.0398195 0)
(0.0146518 0.000576304 0)
(0.0417749 0.00166382 0)
(0.06489 0.00264185 0)
(0.0844373 0.00354362 0)
(0.100887 0.00439682 0)
(0.11465 0.00522279 0)
(0.126084 0.00603881 0)
(0.135494 0.00685772 0)
(0.143154 0.00769059 0)
(0.149314 0.00854713 0)
(0.154216 0.00943865 0)
(0.158064 0.0103716 0)
(0.161061 0.0113558 0)
(0.163401 0.0123995 0)
(0.165269 0.0135085 0)
(0.166879 0.014694 0)
(0.16839 0.0159608 0)
(0.170073 0.0173219 0)
(0.172156 0.0187891 0)
(0.174918 0.0203721 0)
(0.178692 0.0220807 0)
(0.183859 0.0239256 0)
(0.19093 0.0259189 0)
(0.200516 0.0280647 0)
(0.21344 0.0303654 0)
(0.230676 0.0327964 0)
(0.253467 0.0353007 0)
(0.283101 0.0377454 0)
(0.319226 0.0398188 0)
(0.357647 0.04112 0)
(0.0148722 0.000622171 0)
(0.0424227 0.0017961 0)
(0.0659471 0.00285152 0)
(0.0859016 0.00382401 0)
(0.102768 0.00474314 0)
(0.116974 0.00563173 0)
(0.128886 0.00650899 0)
(0.138811 0.00738792 0)
(0.147033 0.00828027 0)
(0.153821 0.00919804 0)
(0.15941 0.0101507 0)
(0.164013 0.0111457 0)
(0.167855 0.0121937 0)
(0.171121 0.0133001 0)
(0.174014 0.0144731 0)
(0.176776 0.0157238 0)
(0.179612 0.0170606 0)
(0.182761 0.0184926 0)
(0.186508 0.0200299 0)
(0.191168 0.0216816 0)
(0.197103 0.0234588 0)
(0.204752 0.0253704 0)
(0.214759 0.0274241 0)
(0.227748 0.0296195 0)
(0.24469 0.0319482 0)
(0.266517 0.0343694 0)
(0.294744 0.0368129 0)
(0.329791 0.0390919 0)
(0.371076 0.0408987 0)
(0.41307 0.0418435 0)
(0.015105 0.000665629 0)
(0.0431069 0.00192139 0)
(0.067064 0.00305004 0)
(0.087449 0.0040893 0)
(0.104755 0.00507043 0)
(0.119437 0.00601906 0)
(0.131859 0.00695379 0)
(0.142329 0.00788837 0)
(0.151148 0.00883618 0)
(0.158595 0.00980946 0)
(0.164893 0.0108157 0)
(0.170283 0.0118646 0)
(0.174982 0.0129649 0)
(0.179218 0.0141252 0)
(0.183208 0.0153542 0)
(0.187178 0.0166604 0)
(0.191383 0.0180515 0)
(0.196043 0.0195333 0)
(0.201517 0.021121 0)
(0.208138 0.0228203 0)
(0.21632 0.0246366 0)
(0.226567 0.0265801 0)
(0.239519 0.0286521 0)
(0.25602 0.0308457 0)
(0.276958 0.0331398 0)
(0.303575 0.035491 0)
(0.336945 0.0377994 0)
(0.377163 0.0398711 0)
(0.423051 0.0414216 0)
(0.468339 0.0419869 0)
(0.0153492 0.000706723 0)
(0.0438255 0.00203986 0)
(0.0682376 0.00323767 0)
(0.0890763 0.00433987 0)
(0.106856 0.00537987 0)
(0.122035 0.0063845 0)
(0.134978 0.00737155 0)
(0.146013 0.0083568 0)
(0.155452 0.00935425 0)
(0.163565 0.0103749 0)
(0.170595 0.0114277 0)
(0.1768 0.012523 0)
(0.182412 0.01367 0)
(0.187651 0.0148762 0)
(0.192764 0.0161491 0)
(0.197954 0.0174945 0)
(0.203532 0.0189221 0)
(0.20976 0.0204392 0)
(0.216989 0.0220556 0)
(0.225591 0.0237732 0)
(0.23603 0.0255986 0)
(0.248878 0.0275345 0)
(0.264799 0.029576 0)
(0.284674 0.0317087 0)
(0.309551 0.0338996 0)
(0.340604 0.0360906 0)
(0.378508 0.0381667 0)
(0.423333 0.039952 0)
(0.473072 0.0411931 0)
(0.521735 0.0411508 0)
(0.015603 0.000745325 0)
(0.0445732 0.00215113 0)
(0.0694592 0.00341381 0)
(0.0907695 0.00457479 0)
(0.109038 0.00566916 0)
(0.124725 0.00672421 0)
(0.138205 0.00775885 0)
(0.149822 0.00878946 0)
(0.159897 0.00983109 0)
(0.168698 0.0108935 0)
(0.176498 0.0119879 0)
(0.183544 0.0131234 0)
(0.190084 0.014308 0)
(0.196325 0.0155472 0)
(0.202549 0.0168499 0)
(0.208999 0.0182231 0)
(0.215967 0.0196732 0)
(0.223748 0.0212041 0)
(0.232718 0.0228248 0)
(0.243273 0.0245353 0)
(0.255911 0.026334 0)
(0.271245 0.0282193 0)
(0.289987 0.0301766 0)
(0.31298 0.0321781 0)
(0.341373 0.0341733 0)
(0.375966 0.036074 0)
(0.417374 0.0377381 0)
(0.465367 0.0389606 0)
(0.517402 0.0394739 0)
(0.569697 0.0380146 0)
(0.0100689 -0.00284565 0)
(0.0230554 -0.00320192 0)
(0.0525248 -0.00351851 0)
(0.100768 -0.00369624 0)
(0.162118 -0.00372867 0)
(0.224433 -0.00358024 0)
(0.277986 -0.00330457 0)
(0.320085 -0.0030035 0)
(0.351748 -0.00270253 0)
(0.374813 -0.00241757 0)
(0.390981 -0.0021551 0)
(0.401559 -0.00191647 0)
(0.407489 -0.00171157 0)
(0.409402 -0.00151977 0)
(0.40776 -0.00134513 0)
(0.402881 -0.00119355 0)
(0.394975 -0.00105191 0)
(0.384167 -0.000927932 0)
(0.370493 -0.000817854 0)
(0.353972 -0.00071948 0)
(0.334595 -0.000630925 0)
(0.312336 -0.000550497 0)
(0.287152 -0.000476654 0)
(0.258996 -0.000407981 0)
(0.227813 -0.000343156 0)
(0.193549 -0.000280926 0)
(0.156149 -0.000220072 0)
(0.115559 -0.000159374 0)
(0.0717513 -9.75974e-05 0)
(0.0245269 -3.3177e-05 0)
(0.0177801 -0.00847087 0)
(0.0326525 -0.00952532 0)
(0.0637762 -0.0103254 0)
(0.112775 -0.0107859 0)
(0.173486 -0.0108037 0)
(0.233979 -0.0103181 0)
(0.28563 -0.00953851 0)
(0.32615 -0.00867755 0)
(0.356537 -0.00781911 0)
(0.37861 -0.00700674 0)
(0.394011 -0.00625753 0)
(0.404011 -0.00558613 0)
(0.409474 -0.00498459 0)
(0.411014 -0.00443093 0)
(0.409086 -0.00393442 0)
(0.403985 -0.00348808 0)
(0.395906 -0.00308349 0)
(0.384949 -0.00272502 0)
(0.371156 -0.00240549 0)
(0.354538 -0.00211907 0)
(0.335081 -0.00186055 0)
(0.312753 -0.00162517 0)
(0.287511 -0.00140856 0)
(0.259304 -0.00120669 0)
(0.228076 -0.00101574 0)
(0.193769 -0.000832107 0)
(0.156328 -0.000652239 0)
(0.115697 -0.000472581 0)
(0.0718433 -0.000289521 0)
(0.024561 -9.8447e-05 0)
(0.032618 -0.0138188 0)
(0.0509856 -0.0154703 0)
(0.0850197 -0.016629 0)
(0.135338 -0.0172007 0)
(0.194547 -0.0170361 0)
(0.251776 -0.0161948 0)
(0.300007 -0.0149858 0)
(0.337561 -0.0136553 0)
(0.365568 -0.0123331 0)
(0.385786 -0.0110817 0)
(0.399777 -0.00993432 0)
(0.408655 -0.00889267 0)
(0.413215 -0.00794066 0)
(0.414064 -0.00707835 0)
(0.411593 -0.00629833 0)
(0.406067 -0.00559275 0)
(0.397648 -0.00496037 0)
(0.386414 -0.00439509 0)
(0.372396 -0.00388852 0)
(0.355593 -0.00343244 0)
(0.335982 -0.00301916 0)
(0.313524 -0.00264149 0)
(0.288171 -0.00229275 0)
(0.259868 -0.00196667 0)
(0.228554 -0.00165733 0)
(0.194168 -0.00135903 0)
(0.156651 -0.00106615 0)
(0.115942 -0.000773016 0)
(0.0720038 -0.000473838 0)
(0.0246195 -0.000161177 0)
(0.0543405 -0.0188706 0)
(0.0770864 -0.0208702 0)
(0.114839 -0.0222681 0)
(0.166211 -0.0227934 0)
(0.223103 -0.0223582 0)
(0.276069 -0.0211819 0)
(0.319729 -0.0196046 0)
(0.353293 -0.0178957 0)
(0.378089 -0.016206 0)
(0.395825 -0.0146143 0)
(0.407837 -0.0131433 0)
(0.415122 -0.0117889 0)
(0.418459 -0.0105549 0)
(0.418343 -0.00943184 0)
(0.415115 -0.00841129 0)
(0.408996 -0.00749148 0)
(0.400099 -0.00666431 0)
(0.388477 -0.0059209 0)
(0.374141 -0.00525135 0)
(0.357075 -0.00464576 0)
(0.337244 -0.00409459 0)
(0.314601 -0.00358884 0)
(0.289091 -0.00312001 0)
(0.26065 -0.00268006 0)
(0.229214 -0.0022613 0)
(0.194716 -0.00185624 0)
(0.15709 -0.0014575 0)
(0.116273 -0.00105751 0)
(0.0722172 -0.000648578 0)
(0.024696 -0.000220681 0)
(0.0826295 -0.0236013 0)
(0.110148 -0.0257433 0)
(0.151606 -0.0271544 0)
(0.203431 -0.0274908 0)
(0.257212 -0.0267658 0)
(0.305028 -0.0252767 0)
(0.343317 -0.0233943 0)
(0.372222 -0.0213939 0)
(0.393296 -0.0194339 0)
(0.408035 -0.0175827 0)
(0.417615 -0.0158542 0)
(0.423029 -0.0142632 0)
(0.424884 -0.0128054 0)
(0.423601 -0.0114729 0)
(0.419464 -0.0102636 0)
(0.412619 -0.00916979 0)
(0.403135 -0.00818201 0)
(0.391033 -0.00728984 0)
(0.376301 -0.0064823 0)
(0.358908 -0.00574834 0)
(0.338803 -0.00507723 0)
(0.315929 -0.00445868 0)
(0.290221 -0.00388286 0)
(0.261608 -0.00334036 0)
(0.230018 -0.00282209 0)
(0.19538 -0.00231915 0)
(0.15762 -0.00182263 0)
(0.116668 -0.00132339 0)
(0.0724695 -0.000812067 0)
(0.0247856 -0.000276381 0)
(0.117086 -0.0279742 0)
(0.149317 -0.0300636 0)
(0.193988 -0.0312964 0)
(0.245326 -0.0313353 0)
(0.295004 -0.0302882 0)
(0.336937 -0.0285129 0)
(0.369355 -0.0263857 0)
(0.393284 -0.0241762 0)
(0.410249 -0.0220224 0)
(0.421632 -0.0199821 0)
(0.428591 -0.0180734 0)
(0.43193 -0.016309 0)
(0.432146 -0.0146852 0)
(0.429592 -0.0132004 0)
(0.424441 -0.0118481 0)
(0.416776 -0.0106199 0)
(0.406624 -0.00950546 0)
(0.393972 -0.00849384 0)
(0.378787 -0.00757346 0)
(0.361015 -0.0067327 0)
(0.340593 -0.00596011 0)
(0.31745 -0.00524462 0)
(0.291511 -0.00457554 0)
(0.262698 -0.00394248 0)
(0.230931 -0.00333534 0)
(0.19613 -0.00274408 0)
(0.158215 -0.00215859 0)
(0.117108 -0.00156846 0)
(0.0727483 -0.000962935 0)
(0.0248838 -0.000327804 0)
(0.157221 -0.031914 0)
(0.193668 -0.0337747 0)
(0.240626 -0.0346834 0)
(0.290247 -0.0343524 0)
(0.334784 -0.0329715 0)
(0.37027 -0.0309419 0)
(0.396618 -0.0286287 0)
(0.415335 -0.0262739 0)
(0.427968 -0.0239912 0)
(0.435918 -0.021831 0)
(0.440187 -0.0198123 0)
(0.441388 -0.0179345 0)
(0.439947 -0.0162042 0)
(0.436067 -0.0146165 0)
(0.429844 -0.0131646 0)
(0.421304 -0.0118397 0)
(0.410432 -0.0106315 0)
(0.397185 -0.00952896 0)
(0.381503 -0.00852047 0)
(0.363316 -0.00759426 0)
(0.342545 -0.00673868 0)
(0.319106 -0.00594231 0)
(0.292913 -0.00519398 0)
(0.263879 -0.00448273 0)
(0.231916 -0.00379775 0)
(0.196935 -0.00312821 0)
(0.158851 -0.00246311 0)
(0.117576 -0.00179101 0)
(0.0730422 -0.00110011 0)
(0.0249866 -0.000374578 0)
(0.202379 -0.0352989 0)
(0.24219 -0.0368053 0)
(0.2902 -0.0373116 0)
(0.33665 -0.0365759 0)
(0.375016 -0.034865 0)
(0.403664 -0.0326134 0)
(0.423833 -0.0301708 0)
(0.437255 -0.0277279 0)
(0.445647 -0.0253817 0)
(0.450257 -0.0231657 0)
(0.451908 -0.0210915 0)
(0.45107 -0.0191609 0)
(0.447995 -0.017375 0)
(0.44279 -0.0157296 0)
(0.43548 -0.0142181 0)
(0.426044 -0.0128319 0)
(0.414428 -0.0115611 0)
(0.40056 -0.0103949 0)
(0.384359 -0.00932203 0)
(0.365735 -0.00833111 0)
(0.344594 -0.00741065 0)
(0.320841 -0.00654927 0)
(0.294378 -0.00573568 0)
(0.26511 -0.0049587 0)
(0.232938 -0.00420712 0)
(0.197768 -0.0034696 0)
(0.159504 -0.00273455 0)
(0.118054 -0.00198983 0)
(0.0733406 -0.00122281 0)
(0.0250904 -0.000416432 0)
(0.251719 -0.0380302 0)
(0.293875 -0.0391301 0)
(0.341425 -0.0392048 0)
(0.38304 -0.0380447 0)
(0.414267 -0.0360148 0)
(0.435863 -0.0335836 0)
(0.449813 -0.031059 0)
(0.458187 -0.0285918 0)
(0.462624 -0.0262409 0)
(0.464168 -0.0240246 0)
(0.463417 -0.0219479 0)
(0.460664 -0.0200119 0)
(0.456031 -0.018215 0)
(0.449544 -0.0165528 0)
(0.441171 -0.0150184 0)
(0.430847 -0.0136035 0)
(0.418487 -0.0122988 0)
(0.403994 -0.0110943 0)
(0.387266 -0.00997957 0)
(0.368195 -0.00894368 0)
(0.346675 -0.00797574 0)
(0.322599 -0.00706474 0)
(0.295859 -0.00619961 0)
(0.26635 -0.00536921 0)
(0.233965 -0.00456224 0)
(0.198601 -0.00376713 0)
(0.160155 -0.00297194 0)
(0.118527 -0.00216412 0)
(0.0736338 -0.00133053 0)
(0.0251918 -0.00045319 0)
(0.304287 -0.0400802 0)
(0.347796 -0.0407952 0)
(0.392947 -0.0404051 0)
(0.427874 -0.038792 0)
(0.451269 -0.0364643 0)
(0.465658 -0.0339012 0)
(0.47367 -0.0313574 0)
(0.477481 -0.0289201 0)
(0.478443 -0.0266139 0)
(0.477298 -0.024444 0)
(0.474404 -0.022411 0)
(0.469907 -0.0205126 0)
(0.463833 -0.018745 0)
(0.456142 -0.0171026 0)
(0.446757 -0.0155782 0)
(0.435579 -0.0141642 0)
(0.422496 -0.012852 0)
(0.40739 -0.0116327 0)
(0.39014 -0.0104968 0)
(0.370627 -0.00943443 0)
(0.348729 -0.00843544 0)
(0.32433 -0.00748949 0)
(0.297313 -0.006586 0)
(0.267563 -0.00571417 0)
(0.234967 -0.00486284 0)
(0.199409 -0.00402039 0)
(0.160781 -0.00317485 0)
(0.118979 -0.00231352 0)
(0.0739128 -0.00142303 0)
(0.0252878 -0.000484765 0)
(0.359266 -0.0415058 0)
(0.403046 -0.0418785 0)
(0.443092 -0.0409288 0)
(0.469431 -0.0388198 0)
(0.484557 -0.0362409 0)
(0.49197 -0.0336188 0)
(0.494786 -0.0311145 0)
(0.494766 -0.0287528 0)
(0.492825 -0.0265353 0)
(0.489388 -0.0244568 0)
(0.484628 -0.0225103 0)
(0.478587 -0.0206894 0)
(0.471214 -0.0189877 0)
(0.462423 -0.0173979 0)
(0.4521 -0.0159131 0)
(0.44012 -0.0145264 0)
(0.426351 -0.0132305 0)
(0.410659 -0.0120175 0)
(0.392907 -0.0108794 0)
(0.372964 -0.00980751 0)
(0.350699 -0.00879272 0)
(0.325985 -0.00782559 0)
(0.298698 -0.00689627 0)
(0.268715 -0.00599449 0)
(0.235915 -0.00510947 0)
(0.20017 -0.00422967 0)
(0.161366 -0.00334337 0)
(0.119398 -0.00243805 0)
(0.0741694 -0.00150029 0)
(0.0253757 -0.000511151 0)
(0.416196 -0.0424829 0)
(0.458295 -0.042418 0)
(0.489573 -0.0407207 0)
(0.505933 -0.0381052 0)
(0.512727 -0.035357 0)
(0.514261 -0.0327593 0)
(0.512944 -0.0303464 0)
(0.509892 -0.0281108 0)
(0.505597 -0.0260333 0)
(0.500255 -0.0240938 0)
(0.493911 -0.0222764 0)
(0.486541 -0.0205704 0)
(0.478029 -0.0189678 0)
(0.468255 -0.0174601 0)
(0.457083 -0.0160409 0)
(0.444369 -0.0147047 0)
(0.429965 -0.0134458 0)
(0.413724 -0.012258 0)
(0.3955 -0.0111346 0)
(0.37515 -0.0100685 0)
(0.352535 -0.00905189 0)
(0.327521 -0.00807628 0)
(0.299977 -0.00713279 0)
(0.269775 -0.00621193 0)
(0.236789 -0.0053035 0)
(0.200865 -0.00439586 0)
(0.16189 -0.00347803 0)
(0.119771 -0.00253806 0)
(0.0743966 -0.00156253 0)
(0.0254532 -0.000532423 0)
(0.474879 -0.0431697 0)
(0.510688 -0.0422725 0)
(0.529387 -0.0396123 0)
(0.5355 -0.0365817 0)
(0.535447 -0.0337845 0)
(0.532571 -0.0312815 0)
(0.528179 -0.0290409 0)
(0.522806 -0.0270086 0)
(0.51666 -0.0251361 0)
(0.509782 -0.0233885 0)
(0.502123 -0.021742 0)
(0.493613 -0.0201865 0)
(0.484128 -0.0187132 0)
(0.473501 -0.0173124 0)
(0.461582 -0.0159807 0)
(0.448214 -0.0147145 0)
(0.43324 -0.0135103 0)
(0.416501 -0.0123637 0)
(0.397844 -0.0112699 0)
(0.37712 -0.0102232 0)
(0.354183 -0.0092172 0)
(0.328891 -0.00824469 0)
(0.301109 -0.0072978 0)
(0.270706 -0.00636802 0)
(0.237569 -0.00544637 0)
(0.201489 -0.00452058 0)
(0.162342 -0.00357986 0)
(0.120088 -0.00261424 0)
(0.0745895 -0.00161016 0)
(0.025519 -0.000548731 0)
(0.533575 -0.0433844 0)
(0.554542 -0.0409542 0)
(0.559862 -0.037257 0)
(0.557835 -0.0339923 0)
(0.553042 -0.0313256 0)
(0.547073 -0.0291137 0)
(0.540476 -0.0272039 0)
(0.533404 -0.0254859 0)
(0.52587 -0.0238937 0)
(0.517817 -0.0223903 0)
(0.509142 -0.0209551 0)
(0.499716 -0.019579 0)
(0.489415 -0.0182551 0)
(0.47807 -0.0169803 0)
(0.465514 -0.0157532 0)
(0.451581 -0.0145729 0)
(0.436106 -0.0134379 0)
(0.418928 -0.0123461 0)
(0.399886 -0.0112944 0)
(0.378826 -0.0102789 0)
(0.355598 -0.00929448 0)
(0.330055 -0.0083354 0)
(0.302057 -0.00739487 0)
(0.271466 -0.00646525 0)
(0.238145 -0.00553798 0)
(0.201933 -0.00460297 0)
(0.162699 -0.00364962 0)
(0.120342 -0.00266729 0)
(0.074742 -0.0016436 0)
(0.0255708 -0.000560203 0)
(0.58104 -0.0421654 0)
(0.586328 -0.0368496 0)
(0.580308 -0.0325413 0)
(0.573195 -0.0298234 0)
(0.565627 -0.0278801 0)
(0.55782 -0.0263109 0)
(0.549842 -0.024922 0)
(0.541657 -0.0236233 0)
(0.533179 -0.0223734 0)
(0.524295 -0.0211534 0)
(0.514873 -0.0199554 0)
(0.504771 -0.018778 0)
(0.493841 -0.0176215 0)
(0.481919 -0.0164878 0)
(0.468838 -0.0153791 0)
(0.45443 -0.0142973 0)
(0.438529 -0.0132435 0)
(0.42097 -0.0122177 0)
(0.401592 -0.0112187 0)
(0.380238 -0.0102444 0)
(0.356754 -0.00929122 0)
(0.330991 -0.0083547 0)
(0.302804 -0.00742923 0)
(0.27205 -0.00650819 0)
(0.238586 -0.00558388 0)
(0.202265 -0.0046474 0)
(0.162949 -0.00368901 0)
(0.120515 -0.00269818 0)
(0.0748431 -0.00166338 0)
(0.0256039 -0.000567009 0)
(0.0158685 0.000781807 0)
(0.0453553 0.00225626 0)
(0.0707376 0.00358015 0)
(0.0925402 0.00479626 0)
(0.111317 0.0059412 0)
(0.127539 0.0070433 0)
(0.141581 0.00812159 0)
(0.153817 0.00919454 0)
(0.16456 0.0102759 0)
(0.174081 0.0113755 0)
(0.182674 0.012505 0)
(0.190568 0.0136711 0)
(0.198041 0.0148829 0)
(0.205331 0.016147 0)
(0.212695 0.0174697 0)
(0.220407 0.0188559 0)
(0.228766 0.0203097 0)
(0.238096 0.0218354 0)
(0.24878 0.0234364 0)
(0.261218 0.0251064 0)
(0.275943 0.026842 0)
(0.293618 0.028629 0)
(0.314851 0.0304387 0)
(0.340587 0.0322262 0)
(0.371571 0.0339061 0)
(0.40842 0.0353312 0)
(0.451376 0.0362483 0)
(0.499402 0.03615 0)
(0.548494 0.0339839 0)
(0.591208 0.0272021 0)
(0.0161473 0.000816264 0)
(0.0461771 0.00235554 0)
(0.0720823 0.00373716 0)
(0.0944 0.00500489 0)
(0.113719 0.00619781 0)
(0.130512 0.00734401 0)
(0.145158 0.00846313 0)
(0.158038 0.00957391 0)
(0.169464 0.0106888 0)
(0.179725 0.0118189 0)
(0.18912 0.0129752 0)
(0.197911 0.0141658 0)
(0.206353 0.0153978 0)
(0.214708 0.0166756 0)
(0.223205 0.0180027 0)
(0.232183 0.0193869 0)
(0.24193 0.0208284 0)
(0.252766 0.0223251 0)
(0.265089 0.0238778 0)
(0.279306 0.0254765 0)
(0.295992 0.0271079 0)
(0.315657 0.0287453 0)
(0.338983 0.0303423 0)
(0.366615 0.0318275 0)
(0.398987 0.0330753 0)
(0.436387 0.0338759 0)
(0.47819 0.0338871 0)
(0.521763 0.0325719 0)
(0.561373 0.0293766 0)
(0.591261 0.024096 0)
(0.0164377 0.000848334 0)
(0.047034 0.00244794 0)
(0.0734859 0.00388323 0)
(0.096357 0.00519959 0)
(0.116239 0.00643642 0)
(0.133608 0.00762153 0)
(0.14887 0.0087763 0)
(0.162399 0.00991835 0)
(0.174527 0.0110611 0)
(0.18556 0.0122166 0)
(0.195788 0.0133943 0)
(0.205481 0.0146007 0)
(0.214874 0.0158407 0)
(0.224264 0.0171194 0)
(0.233911 0.0184403 0)
(0.244126 0.0198072 0)
(0.255191 0.0212151 0)
(0.267452 0.0226619 0)
(0.281294 0.0241406 0)
(0.297119 0.0256359 0)
(0.315425 0.0271239 0)
(0.336664 0.0285642 0)
(0.361365 0.0298944 0)
(0.389865 0.0310177 0)
(0.422369 0.0317783 0)
(0.458409 0.0319499 0)
(0.496388 0.0312252 0)
(0.532893 0.029309 0)
(0.563614 0.0260534 0)
(0.586008 0.0212735 0)
(0.016738 0.000877731 0)
(0.0479195 0.00253257 0)
(0.074935 0.00401678 0)
(0.0983726 0.00537692 0)
(0.118826 0.00665229 0)
(0.136789 0.00787162 0)
(0.152681 0.00905677 0)
(0.166889 0.0102259 0)
(0.179747 0.0113922 0)
(0.191556 0.0125658 0)
(0.202598 0.0137552 0)
(0.213165 0.0149669 0)
(0.223521 0.0162063 0)
(0.233941 0.0174761 0)
(0.244682 0.0187759 0)
(0.256062 0.0201083 0)
(0.268365 0.0214665 0)
(0.281908 0.0228409 0)
(0.297072 0.0242209 0)
(0.314217 0.0255838 0)
(0.333727 0.0268966 0)
(0.356011 0.0281057 0)
(0.381277 0.0291373 0)
(0.409711 0.0298813 0)
(0.441009 0.0301795 0)
(0.474081 0.0298456 0)
(0.506981 0.0286833 0)
(0.536829 0.026581 0)
(0.561262 0.023477 0)
(0.578978 0.0192573 0)
(0.0170446 0.000904007 0)
(0.0488229 0.00260812 0)
(0.0764113 0.00413569 0)
(0.100426 0.00553436 0)
(0.121465 0.00684335 0)
(0.140046 0.00809277 0)
(0.156598 0.00930449 0)
(0.171491 0.0104948 0)
(0.185062 0.0116765 0)
(0.19762 0.0128594 0)
(0.209492 0.0140537 0)
(0.220935 0.0152637 0)
(0.232218 0.016492 0)
(0.243609 0.0177393 0)
(0.255387 0.0190057 0)
(0.267843 0.0202891 0)
(0.281232 0.0215781 0)
(0.295878 0.0228625 0)
(0.31213 0.0241228 0)
(0.330234 0.0253306 0)
(0.350558 0.0264459 0)
(0.373228 0.0274095 0)
(0.398346 0.0281386 0)
(0.42581 0.028528 0)
(0.454849 0.0284522 0)
(0.484214 0.0277777 0)
(0.512117 0.0264139 0)
(0.536684 0.0243195 0)
(0.556729 0.0214435 0)
(0.571402 0.0178014 0)
(0.0173548 0.000926863 0)
(0.0497377 0.0026738 0)
(0.0779033 0.00423868 0)
(0.102511 0.00567094 0)
(0.124169 0.00700988 0)
(0.143374 0.00828392 0)
(0.160566 0.00951478 0)
(0.176126 0.0107192 0)
(0.190407 0.0119097 0)
(0.203736 0.013097 0)
(0.216421 0.0142884 0)
(0.228683 0.0154851 0)
(0.24085 0.0166924 0)
(0.253166 0.0179082 0)
(0.265879 0.0191275 0)
(0.279277 0.0203469 0)
(0.293604 0.0215538 0)
(0.309171 0.0227317 0)
(0.326195 0.0238581 0)
(0.344941 0.0248975 0)
(0.365551 0.0258072 0)
(0.388047 0.0265268 0)
(0.41241 0.0269775 0)
(0.438148 0.0270735 0)
(0.464397 0.0267266 0)
(0.49001 0.02586 0)
(0.513653 0.0244354 0)
(0.534246 0.0224273 0)
(0.5511 0.0198198 0)
(0.563657 0.0167031 0)
(0.0176673 0.000946107 0)
(0.0506627 0.00272921 0)
(0.0794319 0.00432646 0)
(0.104636 0.00578643 0)
(0.126888 0.007148 0)
(0.146707 0.00844018 0)
(0.164535 0.00968423 0)
(0.180774 0.0108973 0)
(0.195768 0.0120915 0)
(0.209836 0.0132752 0)
(0.22327 0.0144538 0)
(0.236339 0.0156306 0)
(0.249332 0.0168078 0)
(0.262469 0.0179796 0)
(0.276018 0.0191419 0)
(0.290226 0.0202865 0)
(0.305323 0.0213989 0)
(0.32154 0.0224598 0)
(0.339054 0.0234433 0)
(0.358038 0.0243113 0)
(0.378482 0.0250217 0)
(0.400388 0.0255163 0)
(0.423428 0.0257327 0)
(0.447034 0.0256079 0)
(0.470422 0.0250852 0)
(0.492657 0.0241275 0)
(0.512896 0.0227119 0)
(0.53047 0.0208319 0)
(0.544902 0.0185042 0)
(0.555866 0.0158392 0)
(0.0179778 0.000961396 0)
(0.0515837 0.00277329 0)
(0.0809487 0.00439582 0)
(0.106742 0.00587697 0)
(0.129588 0.00725518 0)
(0.150028 0.00856014 0)
(0.16851 0.00981306 0)
(0.185409 0.0110282 0)
(0.201066 0.0122171 0)
(0.215844 0.0133901 0)
(0.230011 0.0145505 0)
(0.243813 0.0156981 0)
(0.257541 0.0168352 0)
(0.271417 0.0179565 0)
(0.285672 0.0190517 0)
(0.300523 0.0201133 0)
(0.316186 0.0211233 0)
(0.332791 0.0220614 0)
(0.350532 0.0228997 0)
(0.369382 0.023604 0)
(0.389338 0.024131 0)
(0.410227 0.024433 0)
(0.431621 0.024466 0)
(0.453003 0.024186 0)
(0.473712 0.0235619 0)
(0.493109 0.0225715 0)
(0.510615 0.0212082 0)
(0.52583 0.0194745 0)
(0.538396 0.0174146 0)
(0.548093 0.0151268 0)
(0.0182825 0.000972439 0)
(0.0524883 0.00280511 0)
(0.0824341 0.00444537 0)
(0.10882 0.00594153 0)
(0.132282 0.00733199 0)
(0.153332 0.00864342 0)
(0.172423 0.00989733 0)
(0.189948 0.0111076 0)
(0.206266 0.0122864 0)
(0.221717 0.0134422 0)
(0.236542 0.0145754 0)
(0.25102 0.0156874 0)
(0.265401 0.0167773 0)
(0.279902 0.0178385 0)
(0.294717 0.0188617 0)
(0.310064 0.0198337 0)
(0.326059 0.0207392 0)
(0.342854 0.0215547 0)
(0.360504 0.0222531 0)
(0.378933 0.0228046 0)
(0.398114 0.0231716 0)
(0.417722 0.0233207 0)
(0.437358 0.0232175 0)
(0.4566 0.022837 0)
(0.47497 0.0221591 0)
(0.492005 0.0211748 0)
(0.507318 0.0198869 0)
(0.520615 0.0183075 0)
(0.531669 0.0164931 0)
(0.54034 0.0145164 0)
(0.01858 0.000979063 0)
(0.0533746 0.00282432 0)
(0.0839142 0.00447626 0)
(0.110878 0.0059804 0)
(0.134913 0.00737497 0)
(0.156542 0.00868609 0)
(0.176236 0.00993525 0)
(0.194384 0.0111362 0)
(0.211311 0.0122975 0)
(0.227369 0.0134283 0)
(0.242812 0.0145301 0)
(0.25788 0.0155995 0)
(0.272813 0.0166363 0)
(0.287825 0.0176323 0)
(0.303066 0.018578 0)
(0.318719 0.0194586 0)
(0.334855 0.0202585 0)
(0.351618 0.0209558 0)
(0.36893 0.0215274 0)
(0.386746 0.0219435 0)
(0.404907 0.0221788 0)
(0.423096 0.0222095 0)
(0.441022 0.0220116 0)
(0.458342 0.0215685 0)
(0.474698 0.020871 0)
(0.489752 0.0199186 0)
(0.50327 0.0187169 0)
(0.515008 0.0172912 0)
(0.524801 0.0156932 0)
(0.532601 0.0139758 0)
(0.018866 0.000981013 0)
(0.0542252 0.00282991 0)
(0.0853336 0.00448541 0)
(0.112851 0.00599019 0)
(0.137452 0.00738267 0)
(0.159669 0.00868895 0)
(0.179936 0.00992723 0)
(0.198643 0.0111109 0)
(0.216148 0.0122497 0)
(0.232763 0.01335 0)
(0.248745 0.0144128 0)
(0.264316 0.0154358 0)
(0.279716 0.0164145 0)
(0.295095 0.0173429 0)
(0.310629 0.0182081 0)
(0.326406 0.0189991 0)
(0.342534 0.0196979 0)
(0.35904 0.0202852 0)
(0.375835 0.0207422 0)
(0.392843 0.0210459 0)
(0.409857 0.021178 0)