/*--------------------------------*- C++ -*----------------------------------*\
| =========                 |                                                 |
| \\      /  F ield         | OpenFOAM: The Open Source CFD Toolbox           |
|  \\    /   O peration     | Version:  4.1                                   |
|   \\  /    A nd           | Web:      www.OpenFOAM.org                      |
|    \\/     M anipulation  |                                                 |
\*---------------------------------------------------------------------------*/
FoamFile
{
    version     2.0;
    format      ascii;
    class       surfaceVectorField;
    location    "4.9";
    object      Uf;
}
// * * * * * * * * * * * * * * * * * * * * * * * * * * * * * * * * * * * * * //

dimensions      [0 1 -1 0 0 0 0];

internalField   nonuniform List<vector> 
5457
(
(9.91522 0 0.0227046)
(9.96528 0 0.0361765)
(9.82165 9.32116e-20 0.0282014)
(9.92962 2.20162e-20 0.0412377)
(9.718 4.14693e-20 0.0325987)
(9.86875 -2.17148e-20 0.0474113)
(9.60151 -4.62893e-20 0.0372279)
(9.78716 -6.14061e-22 0.0552979)
(9.47215 7.73468e-20 0.0420363)
(9.69104 0 0.0636957)
(9.33011 7.47228e-20 0.0470525)
(9.58198 2.63722e-20 0.0725035)
(9.17514 -2.7384e-20 0.0524135)
(9.45943 2.05274e-19 0.0819634)
(9.00665 2.49191e-21 0.0582526)
(9.32255 -1.32501e-19 0.0923053)
(8.82382 -1.57567e-21 0.0646835)
(9.17061 -5.41939e-20 0.103708)
(8.62569 3.42076e-20 0.0718166)
(9.00285 -1.73118e-19 0.116339)
(8.41117 -4.11225e-21 0.0797712)
(8.8183 8.84133e-20 0.130378)
(8.17902 -6.25977e-20 0.0886829)
(8.61584 1.80235e-19 0.146025)
(7.92782 -4.46453e-21 0.0987041)
(8.39418 0 0.163513)
(7.65606 -4.31566e-21 0.11)
(8.1519 -2.22724e-22 0.183089)
(7.36206 0 0.122751)
(7.88739 0 0.205014)
(7.04405 0 0.137162)
(7.59894 -5.52022e-19 0.229557)
(6.70015 3.55606e-19 0.153452)
(7.28471 -1.00077e-20 0.257024)
(6.32843 4.43982e-19 0.171819)
(6.94283 9.88359e-19 0.287689)
(5.92705 -2.97511e-19 0.192438)
(6.57127 1.82656e-19 0.321717)
(5.49436 -3.82004e-19 0.21547)
(6.16807 -3.88015e-19 0.359192)
(5.02898 0 0.24104)
(5.73158 0 0.400109)
(4.52995 0 0.269186)
(5.26034 0 0.444264)
(3.99694 -7.93444e-19 0.299806)
(4.75329 1.72441e-18 0.491141)
(3.43053 1.48857e-18 0.332599)
(4.20999 -6.49845e-18 0.539796)
(2.83245 1.60738e-18 0.366913)
(3.63078 5.62634e-18 0.588674)
(2.20613 -5.94865e-19 0.401398)
(3.01717 -5.98597e-19 0.635251)
(1.5575 7.20566e-19 0.432625)
(2.372 4.52136e-18 0.675241)
(0.897274 7.19452e-19 0.4413)
(1.70025 -5.92428e-18 0.700031)
(0.244965 1.8152e-18 0.107651)
(0.986348 -1.30078e-18 0.680779)
(0.366924 2.26804e-19 0.265731)
(10.0037 2.24123e-20 0.0442005)
(9.99547 2.14706e-20 0.0345826)
(9.97662 -9.37803e-20 0.0570686)
(9.98816 1.31656e-19 0.0531365)
(9.93267 -6.33765e-20 0.06814)
(9.95925 -2.28657e-20 0.0674821)
(9.87358 4.56798e-20 0.0801625)
(9.90987 -9.27034e-20 0.0833063)
(9.79927 -5.04754e-20 0.0930123)
(9.84504 9.52989e-20 0.100247)
(9.70979 1.60227e-19 0.106712)
(9.76651 -4.95479e-20 0.118135)
(9.605 9.40195e-20 0.121557)
(9.67399 1.03454e-19 0.137352)
(9.48442 -1.87795e-19 0.137854)
(9.56678 -1.05423e-19 0.158333)
(9.34735 -2.2784e-19 0.155871)
(9.44427 2.55965e-20 0.181434)
(9.19294 -1.14332e-19 0.175869)
(9.30581 2.5775e-20 0.206993)
(9.02018 2.74372e-19 0.198131)
(9.15054 -7.02208e-19 0.235374)
(8.82791 2.39768e-19 0.222982)
(8.97746 6.93817e-19 0.266983)
(8.6148 4.23957e-21 0.250783)
(8.78542 0 0.302288)
(8.37934 4.09871e-21 0.281923)
(8.57311 8.23971e-21 0.341815)
(8.11986 -5.61255e-19 0.316796)
(8.33904 0 0.386104)
(7.83461 -5.53089e-19 0.355829)
(8.08158 -5.16894e-19 0.435709)
(7.52169 6.39084e-19 0.399472)
(7.79892 -1.20437e-18 0.491256)
(7.17903 7.13989e-19 0.448084)
(7.48931 3.1179e-18 0.553393)
(6.80457 8.30615e-20 0.501872)
(7.15067 -2.6764e-18 0.622575)
(6.39632 0 0.560918)
(6.78071 1.35195e-18 0.699052)
(5.95247 0 0.625117)
(6.37737 2.8895e-18 0.782951)
(5.47143 1.74845e-18 0.694)
(5.93866 -2.61804e-18 0.87407)
(4.952 -4.0877e-18 0.76657)
(5.46259 2.11998e-18 0.971624)
(4.39355 -2.21962e-18 0.841078)
(4.94729 -9.101e-18 1.07402)
(3.79623 3.35423e-18 0.914604)
(4.39106 8.26223e-18 1.17849)
(3.16131 4.55018e-18 0.982126)
(3.79231 -4.77045e-19 1.28034)
(2.49182 -2.1545e-18 1.03391)
(3.14892 5.51305e-18 1.37117)
(1.79423 -7.95601e-18 1.04811)
(2.45842 3.0992e-18 1.43344)
(1.06546 -2.85245e-18 0.966107)
(1.6739 -9.35331e-18 1.4346)
(1.00339 -1.94637e-19 1.2932)
(9.9966 1.32628e-19 0.0466239)
(9.99319 4.28879e-20 0.0360488)
(9.97327 1.99519e-19 0.0667215)
(9.98346 -8.74557e-20 0.0634468)
(9.93305 -5.35385e-20 0.0853828)
(9.95569 2.48935e-22 0.0859227)
(9.87888 -3.95149e-20 0.105368)
(9.90928 -4.70787e-20 0.109079)
(9.81109 9.35168e-20 0.126791)
(9.84818 -9.53495e-20 0.133694)
(9.72966 -1.03521e-19 0.14976)
(9.77415 -1.26595e-21 0.159786)
(9.63442 -9.98112e-20 0.174696)
(9.68713 3.02167e-19 0.187822)
(9.52501 1.10329e-19 0.202055)
(9.58657 -2.07429e-19 0.218383)
(9.40087 2.79274e-19 0.232259)
(9.47196 1.08197e-19 0.251976)
(9.26131 -5.7477e-19 0.265739)
(9.34278 2.25461e-19 0.289093)
(9.10544 -2.58754e-19 0.302967)
(9.19836 -8.43934e-19 0.330274)
(8.93227 4.42252e-19 0.344473)
(9.03789 4.79807e-19 0.376107)
(8.74066 4.13943e-21 0.39087)
(8.86038 0 0.427257)
(8.52933 4.00291e-21 0.442825)
(8.66482 5.77166e-23 0.484502)
(8.29677 3.58362e-20 0.501027)
(8.45002 3.32418e-20 0.54867)
(8.04137 -1.17935e-18 0.566198)
(8.21458 3.49468e-20 0.620596)
(7.76142 1.34432e-18 0.639141)
(7.95693 -2.35885e-18 0.70119)
(7.455 -3.64229e-19 0.720603)
(7.67562 3.52466e-18 0.791501)
(7.11992 -1.34538e-18 0.81109)
(7.36896 8.52473e-20 0.892452)
(6.75387 4.26433e-18 0.910888)
(7.03457 -4.22541e-18 1.00464)
(6.35454 1.9309e-19 1.02004)
(6.6702 5.2709e-18 1.12849)
(5.91949 -2.18029e-18 1.13809)
(6.27347 -2.97768e-18 1.26412)
(5.44618 -3.03814e-18 1.26377)
(5.84158 1.79627e-20 1.41099)
(4.93179 1.57302e-18 1.39474)
(5.3712 -3.38459e-18 1.56758)
(4.3731 4.34693e-18 1.52701)
(4.85814 -2.63958e-18 1.73103)
(3.76584 5.36304e-19 1.65404)
(4.29673 6.46343e-18 1.89652)
(3.10247 1.07238e-17 1.76522)
(3.67815 7.35792e-20 2.05652)
(2.36425 1.75151e-18 1.84555)
(2.99052 2.52947e-17 2.19973)
(1.49661 -6.44427e-18 1.89162)
(2.17857 -2.44432e-17 2.32055)
(1.33062 1.30223e-18 2.43978)
(9.99217 -1.79679e-19 0.0532198)
(9.99178 3.20046e-19 0.0394048)
(9.96894 -2.84957e-19 0.0818404)
(9.98015 -2.40788e-19 0.073722)
(9.92955 5.78115e-21 0.108779)
(9.9521 -5.62311e-22 0.104001)
(9.87632 -1.03864e-19 0.136607)
(9.90661 -9.20367e-20 0.13443)
(9.80999 -1.88403e-19 0.165979)
(9.84689 3.76469e-19 0.166453)
(9.7306 4.10072e-19 0.197287)
(9.77454 -3.90575e-19 0.200432)
(9.63802 1.85389e-19 0.231111)
(9.68965 6.03692e-19 0.236938)
(9.53199 -2.03994e-19 0.268061)
(9.59181 -6.22517e-19 0.276647)
(9.41211 5.641e-20 0.308715)
(9.4806 -1.1088e-19 0.320185)
(9.27786 -6.21887e-20 0.353672)
(9.3556 1.60944e-19 0.368178)
(9.12857 -8.25935e-20 0.403582)
(9.21632 1.02206e-18 0.421313)
(8.96346 2.93259e-20 0.459162)
(9.06213 -4.37756e-19 0.480333)
(8.78168 -4.08143e-21 0.52123)
(8.89224 0 0.546055)
(8.58227 2.98487e-20 0.590711)
(8.70586 -4.01557e-21 0.61944)
(8.36411 3.23952e-20 0.668581)
(8.50214 -1.053e-18 0.701558)
(8.12595 -1.18335e-18 0.755848)
(8.28006 -8.4011e-20 0.793516)
(7.86645 -8.45353e-20 0.853635)
(8.03837 -2.31713e-18 0.896457)
(7.58419 3.91943e-18 0.963147)
(7.77595 5.87868e-18 1.01172)
(7.27738 -2.85763e-18 1.08539)
(7.49169 1.22978e-19 1.14073)
(6.94384 -3.08063e-18 1.2211)
(7.18366 -5.25972e-18 1.28463)
(6.58117 1.98318e-18 1.37075)
(6.8497 5.69927e-18 1.44429)
(6.1866 -7.3834e-19 1.53437)
(6.48746 -8.62256e-18 1.62038)
(5.75667 -3.73254e-19 1.7112)
(6.09384 5.30797e-18 1.81308)
(5.28684 -7.57326e-18 1.89937)
(5.66468 -6.0017e-18 2.02172)
(4.77075 -4.58398e-19 2.09566)
(5.19418 -1.30434e-18 2.24459)
(4.19885 5.96345e-18 2.29523)
(4.67385 6.91607e-18 2.47882)
(3.55559 1.46813e-17 2.49177)
(4.09072 -9.20973e-19 2.72075)
(2.81316 -5.79522e-19 2.67741)
(3.42775 3.0553e-17 2.9672)
(1.94325 -1.59197e-17 2.88114)
(2.65597 -3.05746e-17 3.20976)
(1.67674 -1.07301e-18 3.56641)
(9.98985 2.48944e-19 0.0605089)
(9.99107 -7.22157e-19 0.0437483)
(9.96611 4.85197e-20 0.0961785)
(9.97831 4.32762e-20 0.0842309)
(9.92738 -1.00202e-19 0.130269)
(9.95005 4.24799e-22 0.121786)
(9.87511 3.97276e-19 0.165142)
(9.90545 -1.84339e-19 0.159341)
(9.81014 1.6005e-19 0.201866)
(9.84719 3.67641e-21 0.198572)
(9.73254 -1.7882e-19 0.24109)
(9.7766 -5.83401e-19 0.240199)
(9.64219 -2.26348e-19 0.283504)
(9.69384 -1.27503e-21 0.284913)
(9.53891 -5.20399e-19 0.329807)
(9.59865 4.04171e-19 0.333467)
(9.42236 -1.60133e-21 0.38068)
(9.49062 -9.54984e-19 0.386587)
(9.29212 1.26027e-18 0.436839)
(9.36943 4.29482e-19 0.445014)
(9.14767 6.42402e-19 0.499065)
(9.23466 9.99752e-21 0.509551)
(8.98841 -4.59917e-19 0.568209)
(9.08584 -3.62942e-19 0.581078)
(8.81363 0 0.645233)
(8.92233 1.01238e-18 0.660553)
(8.6226 -1.10418e-18 0.731233)
(8.74346 0 0.749074)
(8.41452 -1.15423e-18 0.827404)
(8.5486 9.77692e-19 0.84788)
(8.18846 -1.25338e-18 0.934986)
(8.33705 -2.25846e-18 0.958299)
(7.94344 3.77407e-18 1.05533)
(8.10789 -3.23086e-18 1.0817)
(7.67844 1.99647e-18 1.18999)
(7.86021 7.24027e-18 1.21963)
(7.39223 -2.36192e-18 1.3405)
(7.59331 -2.72508e-18 1.3739)
(7.0831 3.67755e-18 1.50812)
(7.3059 3.18195e-19 1.54623)
(6.74888 -5.09469e-18 1.69394)
(6.99618 -2.11061e-18 1.73807)
(6.38683 -2.40951e-18 1.8988)
(6.66204 -3.68698e-18 1.95082)
(5.99323 -4.41771e-19 2.12297)
(6.30049 1.11606e-17 2.18565)
(5.56283 2.8797e-19 2.36589)
(5.90734 -5.93303e-18 2.44327)
(5.08778 6.13586e-18 2.62623)
(5.4764 6.22239e-18 2.72378)
(4.55622 0 2.90221)
(4.9985 -5.26554e-18 3.02695)
(3.95095 1.49773e-17 3.19298)
(4.46028 -1.32253e-17 3.35259)
(3.24259 1.05757e-18 3.49149)
(3.83917 2.69093e-17 3.70481)
(2.44176 -1.47778e-17 3.84264)
(3.1674 -1.43619e-17 4.04332)
(2.07899 -1.02886e-18 4.62289)
(9.98868 -9.14142e-19 0.0682026)
(9.99074 -3.42338e-19 0.04859)
(9.96457 -5.67133e-21 0.110397)
(9.97741 -6.04432e-19 0.0949063)
(9.92662 -8.73206e-20 0.151449)
(9.94926 -8.90756e-20 0.139226)
(9.87564 -5.74534e-19 0.1934)
(9.90576 5.45752e-19 0.183662)
(9.81233 -7.50913e-19 0.237506)
(9.84919 -1.88994e-19 0.229897)
(9.73683 -3.95239e-19 0.284598)
(9.78068 -2.12172e-21 0.278932)
(9.64906 6.36658e-19 0.335456)
(9.70044 -2.03262e-19 0.331578)
(9.54886 -5.4051e-20 0.390858)
(9.60828 6.14032e-19 0.388663)
(9.43597 -5.00106e-19 0.451579)
(9.50386 1.99176e-19 0.451009)
(9.31003 -8.28316e-19 0.518444)
(9.38689 -1.0375e-19 0.519446)
(9.17064 -1.00237e-18 0.592356)
(9.25704 -1.01735e-18 0.594885)
(9.01728 1.13262e-18 0.674297)
(9.11399 -9.45887e-21 0.678324)
(8.84941 9.96336e-19 0.765364)
(8.95716 9.54077e-19 0.770851)
(8.6664 2.0982e-18 0.866792)
(8.78597 0 0.873686)
(8.46768 -1.76388e-19 0.979945)
(8.60001 4.53117e-20 0.988189)
(8.25259 -4.25233e-18 1.10627)
(8.39873 -5.0921e-20 1.11585)
(8.02039 3.93384e-19 1.24734)
(8.18154 -2.28026e-18 1.25827)
(7.77034 2.37007e-18 1.40495)
(7.9477 2.40459e-18 1.41719)
(7.50161 0 1.58107)
(7.69669 -2.84142e-19 1.59467)
(7.21302 -5.50006e-18 1.77756)
(7.42774 2.93255e-19 1.79294)
(6.90283 -7.35038e-19 1.99618)
(7.13953 -5.73129e-18 2.0141)
(6.56858 1.00589e-17 2.23867)
(6.83036 5.2038e-18 2.26033)
(6.2068 5.48709e-18 2.5066)
(6.49769 1.06798e-17 2.53389)
(5.81241 1.15896e-19 2.80119)
(6.13777 -5.24331e-18 2.83697)
(5.37784 -5.22828e-18 3.12337)
(5.74504 5.24294e-20 3.17171)
(4.89179 -1.84655e-17 3.47393)
(5.31129 5.26174e-18 3.54024)
(4.33947 -1.31149e-18 3.85612)
(4.82609 -2.31552e-17 3.94394)
(3.6883 1.18171e-17 4.25844)
(4.25536 1.1908e-17 4.3961)
(2.98521 -2.05505e-19 4.72912)
(3.72473 -4.00732e-19 4.8003)
(2.53774 -3.81056e-19 5.58341)
(9.98817 -3.71568e-20 0.0760989)
(9.99062 6.79114e-19 0.0536533)
(9.96402 -6.77736e-19 0.124463)
(9.97713 8.41878e-20 0.105601)
(9.92701 5.56499e-19 0.172143)
(9.94942 -6.16228e-19 0.156252)
(9.87757 9.1764e-19 0.220909)
(9.90723 1.8323e-19 0.207273)
(9.81624 5.63569e-19 0.272104)
(9.85255 5.60279e-19 0.260278)
(9.74321 1.86379e-19 0.326726)
(9.78642 -1.89433e-19 0.316446)
(9.65844 -2.11472e-19 0.385656)
(9.7091 -3.93814e-19 0.376715)
(9.5618 8.60114e-19 0.449753)
(9.62041 -4.6433e-21 0.44199)
(9.45307 5.90888e-19 0.519885)
(9.52006 8.37724e-19 0.51317)
(9.33199 -3.08177e-19 0.596966)
(9.40784 -4.28404e-19 0.591163)
(9.19824 -7.17744e-21 0.682011)
(9.2835 -1.0684e-19 0.676967)
(9.05142 -1.72658e-19 0.776128)
(9.14683 -1.14543e-19 0.771708)
(8.89102 -5.81263e-20 0.880521)
(8.99735 -2.03688e-18 0.876604)
(8.71658 -2.05321e-18 0.996531)
(8.83455 1.89627e-18 0.992953)
(8.5277 1.67634e-19 1.12565)
(8.65817 -2.02281e-18 1.1222)
(8.32392 1.89068e-18 1.26952)
(8.46782 2.12749e-18 1.26599)
(8.10472 -1.99525e-19 1.42989)
(8.26314 -7.1003e-20 1.42614)
(7.86951 -2.89444e-19 1.60879)
(8.04357 -2.69483e-19 1.60457)
(7.61775 1.67384e-20 1.80853)
(7.80872 -6.6704e-21 1.80359)
(7.34866 -1.65712e-20 2.0315)
(7.55816 7.57603e-21 2.02579)
(7.06098 3.40785e-19 2.28021)
(7.29097 -4.70295e-18 2.27389)
(6.75281 5.88146e-18 2.55732)
(7.00604 5.40206e-18 2.5509)
(6.42128 -1.84327e-19 2.86559)
(6.7015 5.20181e-18 2.86005)
(6.06211 -5.26566e-18 3.20798)
(6.37435 -4.67726e-18 3.20488)
(5.66893 1.05373e-17 3.58762)
(6.02023 -9.91543e-18 3.58932)
(5.23249 5.34926e-19 4.00693)
(5.63246 2.08379e-17 4.0175)
(4.74275 -1.00041e-17 4.4714)
(5.20645 -1.06118e-17 4.49013)
(4.16174 -1.84486e-19 4.96227)
(4.68797 1.03454e-17 5.03319)
(3.56586 -5.73618e-19 5.52047)
(4.3207 -5.25915e-19 5.47352)
(3.04223 -1.12627e-17 6.43381)
(9.98802 7.89938e-19 0.0840288)
(9.99061 6.71441e-19 0.0587784)
(9.96417 1.31858e-19 0.138265)
(9.97727 6.9047e-19 0.116176)
(9.92827 -9.74246e-19 0.192229)
(9.95029 8.74521e-19 0.172787)
(9.88056 -1.67267e-19 0.247523)
(9.90961 -7.229e-19 0.230082)
(9.82148 -2.06731e-19 0.30553)
(9.85704 -1.82675e-19 0.289589)
(9.75124 -7.73585e-19 0.367372)
(9.79358 -7.60716e-19 0.352584)
(9.66986 -1.80127e-19 0.434035)
(9.71951 -5.46475e-21 0.420127)
(9.57721 -1.26588e-20 0.506454)
(9.63468 6.03043e-19 0.493212)
(9.47314 -2.03475e-19 0.585565)
(9.53888 -1.02061e-18 0.572799)
(9.35746 -2.21609e-19 0.672355)
(9.43193 0 0.659859)
(9.22997 -2.14475e-19 0.767935)
(9.31368 2.1243e-19 0.75545)
(9.09036 -2.01012e-18 0.87355)
(9.18397 0 0.860814)
(8.93823 -2.1465e-20 0.990506)
(9.04249 -1.86584e-18 0.977324)
(8.77322 1.86848e-18 1.12021)
(8.88892 1.89832e-18 1.10633)
(8.59504 0 1.26426)
(8.72301 -1.1945e-19 1.24935)
(8.40341 1.32144e-19 1.42446)
(8.54448 -6.13249e-20 1.40816)
(8.19801 -1.4353e-19 1.60279)
(8.35317 2.10297e-18 1.58474)
(7.97844 1.66576e-20 1.80147)
(8.14879 -2.17276e-18 1.78126)
(7.74432 -1.51489e-20 2.02307)
(7.93105 4.56304e-18 2.00022)
(7.49519 -4.73466e-18 2.27044)
(7.69975 -1.08402e-19 2.24452)
(7.23028 4.61257e-19 2.54677)
(7.45434 -1.34742e-17 2.51738)
(6.94838 4.72701e-18 2.85562)
(7.19435 4.73835e-18 2.82252)
(6.64743 6.24617e-19 3.20088)
(6.91868 4.62707e-18 3.16419)
(6.32428 -9.34011e-18 3.58685)
(6.62522 -9.40172e-18 3.54705)
(5.97429 4.76556e-19 4.01829)
(6.31113 -8.43272e-19 3.97624)
(5.59019 9.68697e-18 4.49863)
(5.97095 8.26005e-19 4.45758)
(5.16783 9.60307e-18 5.03406)
(5.60833 8.89404e-18 4.98894)
(4.66309 1.03672e-17 5.59736)
(5.14008 1.02919e-17 5.61311)
(4.1685 -1.24441e-17 6.21379)
(4.94056 -3.38298e-19 6.06679)
(3.57735 -1.07372e-17 7.17061)
(9.98812 5.7227e-19 0.0918664)
(9.99066 6.69923e-19 0.0638616)
(9.96483 1.43708e-18 0.151699)
(9.97772 -8.57762e-20 0.126509)
(9.93023 1.09539e-18 0.211616)
(9.95173 2.71183e-19 0.188744)
(9.88449 -7.28275e-19 0.273138)
(9.91277 -7.17448e-19 0.251985)
(9.82793 -7.47441e-19 0.337657)
(9.86257 1.80814e-19 0.317695)
(9.76079 2.11538e-20 0.406383)
(9.80209 -3.793e-19 0.387187)
(9.68315 7.88727e-19 0.480398)
(9.73159 3.52262e-21 0.461627)
(9.59492 -4.32803e-19 0.560713)
(9.651 7.9636e-19 0.542102)
(9.49601 -8.00367e-19 0.648322)
(9.56021 -4.06604e-19 0.629623)
(9.38629 4.37756e-19 0.74427)
(9.45905 -4.05789e-19 0.725216)
(9.2656 4.23896e-19 0.849745)
(9.34748 -6.26442e-19 0.830005)
(9.13377 1.15817e-19 0.966101)
(9.22527 0 0.945299)
(8.99062 1.12319e-19 1.09476)
(9.09237 1.14117e-19 1.07257)
(8.83588 -1.2128e-19 1.2372)
(8.94873 0 1.21328)
(8.66932 -1.80058e-19 1.39512)
(8.79407 -1.96068e-21 1.36904)
(8.49078 1.94043e-18 1.57043)
(8.62827 -1.11727e-21 1.54171)
(8.30015 1.79526e-20 1.76532)
(8.45127 5.92578e-18 1.73339)
(8.09726 2.45899e-18 1.98222)
(8.26304 -5.94014e-18 1.94647)
(7.88192 4.4196e-18 2.22397)
(8.06356 4.29302e-18 2.18369)
(7.65391 -8.99172e-18 2.49376)
(7.85278 4.25094e-18 2.44823)
(7.41294 -9.02682e-18 2.79531)
(7.63054 -1.32606e-17 2.74365)
(7.15856 4.6276e-18 3.133)
(7.39681 4.30233e-18 3.07423)
(6.88954 -5.47873e-18 3.51175)
(7.15145 9.02005e-18 3.44519)
(6.60397 -9.05697e-19 3.93692)
(6.89332 -1.88269e-17 3.86216)
(6.29911 -4.62628e-19 4.41426)
(6.62106 9.33014e-18 4.3311)
(5.9692 -2.12152e-20 4.94754)
(6.32985 -9.22733e-18 4.85926)
(5.61526 9.59158e-18 5.54297)
(6.03282 9.53059e-18 5.43981)
(5.18783 0 6.16538)
(5.61156 0 6.13585)
(4.77607 0 6.81853)
(5.56852 -7.84067e-18 6.59291)
(4.12851 8.68417e-18 7.8044)
(9.98841 -1.789e-21 0.0995099)
(9.99078 -3.77782e-21 0.0688199)
(9.96594 -1.2452e-18 0.164662)
(9.97842 0 0.13649)
(9.93285 -1.56157e-18 0.230201)
(9.95363 -5.26803e-19 0.204028)
(9.8893 2.08726e-19 0.297629)
(9.91658 3.50806e-19 0.272873)
(9.83556 5.39186e-19 0.368334)
(9.86898 5.49352e-19 0.344451)
(9.77185 -3.90205e-19 0.443581)
(9.81174 -3.70869e-19 0.420092)
(9.69829 2.4518e-20 0.524535)
(9.74511 -3.82018e-19 0.501039)
(9.61489 8.02618e-19 0.612277)
(9.66912 1.17601e-18 0.588445)
(9.52162 -1.14896e-20 0.707854)
(9.58375 -3.84397e-19 0.683377)
(9.41841 -1.47438e-18 0.812379)
(9.48886 -8.16336e-19 0.78692)
(9.30511 -1.04148e-18 0.927099)
(9.38447 -2.26648e-19 0.900288)
(9.18163 0 1.05341)
(9.27038 -2.12934e-19 1.02482)
(9.04802 0 1.19283)
(9.14667 0 1.16198)
(8.90419 1.19398e-19 1.34697)
(9.01351 1.79726e-18 1.31337)
(8.75001 1.77267e-19 1.51761)
(8.87076 -3.54004e-18 1.48074)
(8.58545 4.06466e-18 1.70675)
(8.71849 1.92023e-18 1.66602)
(8.41056 -1.80919e-19 1.91672)
(8.55673 3.95694e-18 1.87139)
(8.22542 -3.98745e-18 2.15018)
(8.38563 -1.94551e-20 2.09939)
(8.03012 4.12116e-18 2.41021)
(8.20551 -3.93762e-18 2.35303)
(7.82468 -1.81698e-19 2.70031)
(8.01661 4.08007e-18 2.63573)
(7.6092 2.24312e-19 3.02459)
(7.81915 -4.12229e-18 2.95136)
(7.38389 8.73384e-18 3.38808)
(7.61334 4.46913e-18 3.30461)
(7.14861 -4.46312e-18 3.79662)
(7.39991 -4.07529e-18 3.70141)
(6.90248 -8.51063e-18 4.25648)
(7.17895 -3.38941e-19 4.14836)
(6.64444 5.4384e-19 4.7742)
(6.95036 1.46326e-19 4.65211)
(6.36986 2.6924e-19 5.3532)
(6.70931 1.41259e-20 5.2214)
(6.08268 0 5.99991)
(6.47852 0 5.84392)
(5.73077 -7.765e-18 6.6736)
(6.10223 0 6.60388)
(5.37639 2.76968e-18 7.35537)
(6.19359 -7.80066e-18 7.07105)
(4.68727 2.29694e-17 8.3646)
(9.98884 -1.91383e-21 0.106878)
(9.99096 -6.65268e-19 0.0735964)
(9.96735 7.08462e-19 0.177069)
(9.97929 -5.04581e-19 0.146049)
(9.93592 1.40348e-18 0.247896)
(9.95585 5.22678e-19 0.218569)
(9.89474 6.95327e-19 0.320887)
(9.92088 3.02531e-21 0.292667)
(9.84401 -3.77705e-19 0.397421)
(9.87606 7.1906e-19 0.369761)
(9.78398 -3.62921e-19 0.478799)
(9.82224 -2.11528e-21 0.451178)
(9.71482 7.9651e-19 0.566245)
(9.75973 3.78947e-19 0.538198)
(9.63663 -3.73806e-20 0.660906)
(9.68868 1.16605e-18 0.632036)
(9.54941 -1.19704e-18 0.763884)
(9.60909 -1.58097e-18 0.733832)
(9.45313 4.41599e-19 0.876359)
(9.52084 1.1986e-18 0.844723)
(9.34776 6.03415e-19 0.999631)
(9.42403 4.23526e-19 0.965981)
(9.23327 -2.09914e-19 1.13511)
(9.31861 -2.54938e-21 1.09897)
(9.1098 1.82436e-18 1.28435)
(9.20473 -4.26842e-19 1.24516)
(8.97747 -1.93705e-18 1.44908)
(9.08261 1.80012e-18 1.40621)
(8.83638 -1.72696e-18 1.63119)
(8.95236 -5.23291e-18 1.58397)
(8.68662 1.83828e-18 1.83277)
(8.81431 3.6726e-18 1.7805)
(8.52839 4.07131e-18 2.05624)
(8.6686 0 1.99803)
(8.36203 -3.41886e-21 2.30444)
(8.51556 3.91073e-18 2.23921)
(8.18797 -3.90545e-18 2.58069)
(8.35578 -3.71248e-18 2.50723)
(8.00659 6.46471e-20 2.88878)
(8.19 0 2.80577)
(7.81833 1.91271e-19 3.23309)
(8.01882 6.41929e-20 3.13899)
(7.62385 -8.39495e-18 3.61919)
(7.84273 4.51609e-21 3.51191)
(7.42403 4.13357e-20 4.05364)
(7.66304 -8.72153e-18 3.93095)
(7.21924 8.3463e-18 4.54354)
(7.4811 8.24869e-18 4.40357)
(7.00953 -3.83274e-19 5.09651)
(7.29817 7.27697e-18 4.9372)
(6.79114 -2.55387e-19 5.71552)
(7.10873 -1.55988e-17 5.5424)
(6.56787 0 6.40823)
(6.94443 8.73082e-18 6.20271)
(6.28932 0 7.13252)
(6.6152 -1.57054e-18 7.02049)
(5.96922 1.5288e-17 7.85467)
(6.81555 -5.87925e-18 7.52225)
(5.25905 2.07633e-17 8.89935)
(9.98937 -1.16538e-18 0.113915)
(9.99118 -6.63682e-19 0.0781489)
(9.96899 -6.70475e-19 0.188855)
(9.98034 3.3422e-19 0.155125)
(9.93936 -8.88507e-19 0.264632)
(9.95841 -3.4343e-19 0.2323)
(9.90069 3.97788e-20 0.342829)
(9.92564 -7.06242e-19 0.311294)
(9.85316 1.08225e-18 0.424821)
(9.88374 3.56351e-21 0.393542)
(9.79701 7.46882e-19 0.511909)
(9.83355 3.69356e-19 0.480337)
(9.73252 7.61868e-19 0.605368)
(9.7754 3.81463e-19 0.572962)
(9.65984 -4.23157e-19 0.706412)
(9.70953 3.86566e-19 0.67271)
(9.57899 8.60182e-19 0.816204)
(9.63596 -1.95335e-18 0.780806)
(9.49001 1.1693e-18 0.935962)
(9.55467 3.19731e-18 0.89842)
(9.39299 -1.89648e-19 1.06702)
(9.46577 -1.62202e-18 1.02683)
(9.28802 -2.25572e-19 1.21082)
(9.36943 2.10973e-19 1.16744)
(9.17527 -4.21243e-19 1.36892)
(9.26587 -5.71996e-21 1.32174)
(9.05502 -1.59108e-18 1.54309)
(9.15531 1.71604e-18 1.49139)
(8.92759 2.8317e-19 1.73535)
(9.0381 -3.95534e-18 1.6783)
(8.79331 1.78975e-18 1.94788)
(8.9148 1.81309e-18 1.88462)
(8.65254 -1.19445e-19 2.18316)
(8.78578 -4.03228e-18 2.11269)
(8.50586 1.21167e-19 2.44412)
(8.65154 7.5666e-18 2.36518)
(8.35405 2.33773e-19 2.7343)
(8.51294 -3.636e-18 2.64537)
(8.19797 0 3.05777)
(8.37127 0 2.95716)
(8.03854 -1.23178e-19 3.41917)
(8.2275 0 3.30501)
(7.87676 -3.54792e-19 3.82439)
(8.08269 -1.22708e-19 3.69425)
(7.7143 -4.74222e-19 4.28063)
(7.9387 2.25363e-19 4.13157)
(7.55285 7.1646e-18 4.79578)
(7.7978 -2.42773e-19 4.62506)
(7.3934 -7.86028e-18 5.37875)
(7.66299 6.67864e-19 5.18327)
(7.233 -6.80642e-18 6.03337)
(7.52775 -1.5948e-17 5.81882)
(7.0722 7.22472e-18 6.77056)
(7.43155 8.9748e-18 6.51501)
(6.8678 -7.4415e-18 7.55203)
(7.15951 8.44117e-18 7.38589)
(6.57297 2.29033e-18 8.35141)
(7.44973 -8.42653e-18 7.96247)
(5.87052 -4.46974e-18 9.46445)
(9.99002 8.5434e-19 0.120563)
(9.99144 0 0.0824248)
(9.97093 6.48138e-19 0.199954)
(9.98156 8.39621e-19 0.163639)
(9.94325 -1.67889e-19 0.280344)
(9.96128 -8.50028e-19 0.245158)
(9.90721 -7.29534e-19 0.363382)
(9.9308 3.47657e-19 0.328697)
(9.86303 -7.0359e-19 0.450439)
(9.89195 -1.07055e-18 0.415712)
(9.81098 3.80064e-21 0.542798)
(9.84559 0 0.507459)
(9.75138 5.86009e-21 0.641769)
(9.79202 1.48302e-18 0.605218)
(9.6844 -1.1822e-18 0.748643)
(9.73151 -1.12579e-18 0.710356)
(9.61015 4.64755e-19 0.864634)
(9.66416 -3.97036e-19 0.824165)
(9.52876 3.31953e-19 0.990975)
(9.59005 4.14551e-19 0.947829)
(9.44042 -1.19508e-18 1.12902)
(9.50937 -4.20347e-19 1.08262)
(9.34533 4.28074e-19 1.28023)
(9.42239 4.03115e-19 1.22999)
(9.24374 2.15717e-18 1.44617)
(9.32947 4.22516e-19 1.39143)
(9.13604 -7.20492e-19 1.62863)
(9.2309 2.13498e-18 1.56859)
(9.02276 -2.35714e-18 1.82966)
(9.12717 -1.96244e-18 1.76337)
(8.90446 -4.0822e-18 2.05155)
(9.01903 0 1.97798)
(8.78175 3.77624e-18 2.29682)
(8.90714 -7.07766e-18 2.21484)
(8.65542 3.71365e-18 2.56844)
(8.79223 1.0317e-17 2.47666)
(8.52662 -3.84711e-18 2.87005)
(8.67555 -3.8833e-18 2.76669)
(8.39675 0 3.20593)
(8.55863 -4.33867e-19 3.08888)
(8.26725 0 3.58104)
(8.44291 -2.61611e-18 3.448)
(8.1398 4.59357e-19 4.00148)
(8.33046 6.03399e-18 3.84969)
(8.01675 4.58303e-19 4.47481)
(8.22383 -2.93387e-18 4.30062)
(7.90097 -6.75891e-18 5.00985)
(8.12599 -8.05349e-19 4.80936)
(7.79459 -7.36919e-18 5.61695)
(8.04197 -1.29587e-17 5.38575)
(7.69617 -3.88826e-19 6.30265)
(7.96531 5.5089e-18 6.04446)
(7.6016 1.03253e-17 7.0843)
(7.9416 -1.18124e-18 6.77374)
(7.48121 7.44042e-18 7.93484)
(7.74915 2.86286e-18 7.69097)
(7.22992 -1.40186e-17 8.87659)
(8.12765 8.43145e-18 8.39093)
(6.57461 -1.42086e-17 10.1118)
(9.99075 0 0.126768)
(9.99172 -8.13817e-20 0.0863916)
(9.97306 -6.92437e-19 0.210308)
(9.98286 1.4047e-18 0.171547)
(9.94742 -3.11692e-19 0.294978)
(9.96431 1.66576e-19 0.257101)
(9.91412 -1.90792e-20 0.38248)
(9.93624 5.20786e-19 0.344829)
(9.87344 -3.47815e-19 0.474179)
(9.90059 -7.05273e-19 0.436193)
(9.8257 1.50527e-18 0.571351)
(9.85825 0 0.532437)
(9.77117 3.08359e-19 0.675336)
(9.80945 1.48076e-18 0.634856)
(9.71008 -3.28621e-19 0.78748)
(9.75446 -1.12533e-18 0.744871)
(9.64263 -4.3476e-19 0.909029)
(9.6935 -7.44363e-19 0.863793)
(9.56907 -3.51291e-19 1.04122)
(9.62679 -7.9333e-19 0.99281)
(9.48965 1.19184e-18 1.18541)
(9.55453 7.94562e-19 1.13321)
(9.40468 3.97918e-19 1.34308)
(9.4771 4.58809e-21 1.28644)
(9.31456 4.21516e-19 1.5158)
(9.39507 -1.21568e-18 1.45401)
(9.2198 8.4266e-19 1.70533)
(9.30875 1.63564e-18 1.63752)
(9.12104 4.21529e-19 1.91373)
(9.2188 1.62287e-20 1.83886)
(9.01907 -3.07173e-18 2.14331)
(9.1261 0 2.06025)
(8.9148 -3.71352e-19 2.39663)
(9.0316 -6.40409e-18 2.3041)
(8.80938 2.59346e-18 2.67669)
(8.93635 6.40962e-18 2.5731)
(8.70417 -4.37641e-19 2.98709)
(8.84208 0 2.8705)
(8.60098 -3.0672e-18 3.33212)
(8.75025 -8.41719e-19 3.20018)
(8.50202 3.45259e-18 3.71706)
(8.66289 -6.76734e-18 3.56694)
(8.40987 2.63663e-18 4.14814)
(8.58336 1.01521e-17 3.97651)
(8.32782 -4.21131e-18 4.63294)
(8.51492 -8.11969e-18 4.43551)
(8.25989 -6.96822e-18 5.18118)
(8.46154 4.60899e-18 4.95269)
(8.21004 -1.77613e-19 5.80457)
(8.43057 -6.19936e-18 5.53865)
(8.18003 4.73413e-18 6.51364)
(8.41784 1.26327e-17 6.20943)
(8.16345 -8.58591e-18 7.33467)
(8.47378 -4.03549e-18 6.96202)
(8.15262 3.51331e-18 8.26186)
(8.39618 -3.28685e-18 7.90716)
(8.00778 6.4586e-18 9.44219)
(8.88935 5.39026e-18 8.76697)
(7.45114 -3.15923e-18 10.8755)
(9.9915 1.3504e-18 0.132504)
(9.99201 -6.4514e-21 0.0900426)
(9.97525 2.24027e-18 0.219878)
(9.98417 1.06855e-19 0.178833)
(9.95175 1.00633e-18 0.308482)
(9.9674 8.62375e-19 0.268088)
(9.92134 -1.87766e-19 0.40005)
(9.94185 -1.47722e-19 0.35962)
(9.88436 -3.45046e-19 0.495953)
(9.90955 6.29711e-19 0.4549)
(9.84109 0 0.597473)
(9.87139 -1.34367e-18 0.55519)
(9.7918 3.93059e-21 0.705979)
(9.82747 6.83212e-19 0.661808)
(9.73676 -1.53542e-18 0.822833)
(9.77813 7.02313e-19 0.77618)
(9.67629 -1.10443e-18 0.949288)
(9.72378 -1.30109e-19 0.899605)
(9.61072 3.76613e-19 1.08658)
(9.66466 3.92789e-19 1.03328)
(9.54039 -4.05072e-19 1.23609)
(9.60101 -1.45526e-18 1.17851)
(9.46574 -1.62713e-18 1.39928)
(9.53334 -1.89066e-18 1.33671)
(9.38728 3.41238e-20 1.57769)
(9.46243 -1.62369e-18 1.50938)
(9.30565 7.8981e-19 1.77307)
(9.38858 2.75676e-18 1.69809)
(9.22161 -4.06546e-19 1.98742)
(9.31263 -3.48714e-20 1.90471)
(9.13616 -3.39899e-18 2.22304)
(9.23561 -7.63989e-19 2.13135)
(9.05053 4.93966e-19 2.48245)
(9.15879 -6.52337e-18 2.38037)
(8.9662 3.76626e-18 2.76863)
(9.0835 6.96349e-18 2.65438)
(8.88485 -4.09727e-19 3.08509)
(9.01173 3.83441e-18 2.95661)
(8.80857 -4.57336e-18 3.43597)
(8.94524 -3.45461e-18 3.29084)
(8.74034 -2.79374e-20 3.82652)
(8.88674 -4.23766e-18 3.66146)
(8.68377 -6.2674e-19 4.26288)
(8.84042 1.28401e-18 4.07401)
(8.64329 6.83963e-19 4.75247)
(8.81039 -3.41112e-18 4.53482)
(8.62455 5.4541e-18 5.30523)
(8.80214 1.62953e-18 5.0522)
(8.6342 6.51118e-18 5.93331)
(8.82536 6.37241e-18 5.63629)
(8.67974 4.01907e-18 6.65086)
(8.88062 6.70525e-18 6.30214)
(8.75922 1.29201e-18 7.49021)
(9.02261 -2.89382e-18 7.05411)
(8.89882 -1.3207e-18 8.4742)
(9.09862 2.20016e-18 7.97992)
(8.99669 -5.69636e-18 10.0247)
(9.83184 -4.16679e-18 8.93866)
(9.59238 -6.62717e-19 11.6603)
(0.166929 -2.94012e-20 -0.0818861)
(0.0812048 -2.49126e-19 -0.132095)
(0.364123 -6.735e-21 -0.0819331)
(0.254361 1.76681e-19 -0.148909)
(0.554913 4.94541e-20 -0.0663068)
(0.450772 -5.08296e-20 -0.12668)
(0.7249 2.37371e-20 -0.0508592)
(0.636534 -4.53805e-20 -0.101625)
(0.871901 1.93404e-20 -0.0392493)
(0.802184 0 -0.0818871)
(0.999458 1.94469e-20 -0.0316461)
(0.947841 -2.51962e-22 -0.0686561)
(1.11303 -1.5546e-20 -0.0271021)
(1.07751 0 -0.0608862)
(1.21732 2.69828e-21 -0.0244475)
(1.19581 -1.76547e-20 -0.0567648)
(1.31528 1.34269e-20 -0.0227067)
(1.30586 5.16918e-20 -0.0545615)
(1.40817 -4.2091e-21 -0.0211887)
(1.4097 -3.40066e-20 -0.0529879)
(1.49603 7.92883e-21 -0.0194581)
(1.50864 0 -0.0512143)
(1.57823 1.52948e-20 -0.017275)
(1.60277 -1.51866e-20 -0.0487862)
(1.65385 1.01409e-22 -0.0145153)
(1.69161 -7.20068e-21 -0.0454868)
(1.72169 -7.3205e-21 -0.0111393)
(1.7748 -2.11857e-20 -0.0412076)
(1.78042 0 -0.00725726)
(1.85161 0 -0.0358814)
(1.82886 -5.90529e-21 -0.0032113)
(1.92094 0 -0.029615)
(1.86639 -5.95081e-21 0.000508547)
(1.9816 -5.75744e-21 -0.022829)
(1.89322 -6.30752e-21 0.00349055)
(2.03286 5.48241e-21 -0.0160853)
(1.9103 -6.28416e-21 0.00554676)
(2.0743 -1.4143e-21 -0.00990504)
(1.91929 5.45051e-21 0.00670125)
(2.10616 9.1212e-21 -0.0047404)
(1.92233 9.26802e-21 0.0071021)
(2.12987 7.55605e-21 -0.000934074)
(1.92169 3.88444e-21 0.00694677)
(2.14734 9.55616e-21 0.00142621)
(1.91943 0 0.00641518)
(2.16097 -6.63872e-21 0.00247297)
(1.91713 2.54393e-21 0.00560507)
(2.17282 -5.79718e-21 0.00254432)
(1.91593 2.56647e-21 0.00452741)
(2.18413 1.09016e-22 0.0018909)
(1.91665 0 0.00318328)
(2.19565 -4.45926e-22 0.000737141)
(1.91982 1.18997e-21 0.00168734)
(2.20756 1.08029e-22 -0.000736336)
(1.92538 4.69399e-22 0.00028836)
(2.21961 2.62222e-21 -0.00216114)
(1.93264 -9.66673e-22 -0.000814858)
(2.23133 1.21647e-21 -0.00314177)
(2.24402 -6.49258e-23 -0.0036815)
(0.153427 -5.84202e-20 -0.210215)
(0.0534108 -2.48332e-19 -0.262789)
(0.3447 1.43871e-19 -0.210875)
(0.21788 2.61797e-19 -0.291396)
(0.538901 -1.44281e-19 -0.177121)
(0.409442 2.6244e-19 -0.251272)
(0.71945 -6.94393e-20 -0.144063)
(0.590735 -2.90585e-19 -0.206002)
(0.882078 -1.92784e-20 -0.119409)
(0.756297 2.3857e-19 -0.170223)
(1.02802 -1.93503e-20 -0.103594)
(0.90503 -1.39028e-19 -0.146181)
(1.16076 -2.25034e-21 -0.0945546)
(1.03901 0 -0.131952)
(1.28375 3.20031e-20 -0.0896863)
(1.16149 -2.22986e-21 -0.124221)
(1.39954 3.72425e-21 -0.0868235)