/*--------------------------------*- C++ -*----------------------------------*\
| =========                 |                                                 |
| \\      /  F ield         | OpenFOAM: The Open Source CFD Toolbox           |
|  \\    /   O peration     | Version:  5.x                                   |
|   \\  /    A nd           | Web:      www.OpenFOAM.org                      |
|    \\/     M anipulation  |                                                 |
\*---------------------------------------------------------------------------*/
FoamFile
{
    version     2.0;
    format      ascii;
    class       volVectorField;
    location    "2.6";
    object      Force;
}
// * * * * * * * * * * * * * * * * * * * * * * * * * * * * * * * * * * * * * //

dimensions      [1 1 -2 0 0 0 0];

internalField   uniform (0 0 0);

boundaryField
{
    inlet
    {
        type            calculated;
        value           uniform (0 0 0);
    }
    outlet
    {
        type            calculated;
        value           uniform (0 0 0);
    }
    flap
    {
        type            calculated;
        value           nonuniform List<vector> 
33
(
(3.19247 2.01786e-18 -0.194253)
(3.15412 -2.06864e-23 -0.444419)
(3.07916 -8.109e-18 -0.677812)
(2.97066 -3.63352e-18 -0.854791)
(2.83881 -1.79972e-18 -0.983006)
(2.69195 -7.56606e-18 -1.07305)
(2.5346 3.53567e-18 -1.13409)
(2.37039 6.96786e-18 -1.16942)
(2.20261 1.72536e-18 -1.17928)
(2.03502 1.69261e-18 -1.16267)
(1.871 1.33116e-17 -1.11884)
(1.70517 -9.65231e-21 -1.04638)
(1.52109 1.52042e-18 -0.941628)
(1.28822 1.097e-21 -0.795155)
(0.955253 -1.24815e-18 -0.588111)
(0.466622 -3.93901e-21 0.748254)
(0.297815 1.81788e-18 0.478388)
(0.127074 -1.35688e-21 0.206293)
(0.0761837 -1.31914e-18 -0.00469503)
(0.0764163 1.11296e-19 -0.0108699)
(0.0762396 2.76896e-18 -0.016943)
(0.0754521 1.63824e-18 -0.0218696)
(0.07412 -1.44106e-18 -0.0258667)
(0.0724248 8.57649e-22 -0.0291233)
(0.0706529 -9.35587e-23 -0.0319138)
(0.0689861 1.27775e-18 -0.0343964)
(0.067553 1.72418e-18 -0.0365816)
(0.0665801 1.53664e-18 -0.0384777)
(0.0663923 1.56945e-18 -0.0401429)
(0.0672771 2.93874e-39 -0.0416673)
(0.0692895 3.16284e-22 -0.043207)
(0.0722572 1.37963e-18 -0.044491)
(0.0885721 -1.77383e-18 -0.0551835)
)
;
    }
    upperWall
    {
        type            calculated;
        value           uniform (0 0 0);
    }
    lowerWall
    {
        type            calculated;
        value           uniform (0 0 0);
    }
    frontAndBack
    {
        type            empty;
    }
}


// ************************************************************************* //
