/*--------------------------------*- C++ -*----------------------------------*\
| =========                 |                                                 |
| \\      /  F ield         | OpenFOAM: The Open Source CFD Toolbox           |
|  \\    /   O peration     | Version:  5.x                                   |
|   \\  /    A nd           | Web:      www.OpenFOAM.org                      |
|    \\/     M anipulation  |                                                 |
\*---------------------------------------------------------------------------*/
FoamFile
{
    version     2.0;
    format      ascii;
    class       surfaceVectorField;
    location    "2.6";
    object      Uf;
}
// * * * * * * * * * * * * * * * * * * * * * * * * * * * * * * * * * * * * * //

dimensions      [0 1 -1 0 0 0 0];

internalField   nonuniform List<vector> 
5457
(
(9.91116 -8.1101e-20 0.0238962)
(9.97244 -1.76289e-19 0.0378849)
(9.81084 1.16125e-20 0.0299999)
(9.92669 5.69373e-21 0.0442038)
(9.69842 5.87402e-21 0.0349046)
(9.85444 9.88102e-20 0.051437)
(9.57164 -1.27152e-20 0.0399649)
(9.76282 9.586e-20 0.0602224)
(9.43087 4.08511e-20 0.0451312)
(9.65637 3.71058e-20 0.0693708)
(9.27668 -3.95074e-21 0.050429)
(9.53589 5.2298e-20 0.0787871)
(9.10918 -5.31792e-20 0.0559913)
(9.40109 1.04408e-19 0.088705)
(8.92808 8.98262e-20 0.0619553)
(9.25164 0 0.0993511)
(8.73283 2.48686e-20 0.0684414)
(9.0872 5.98558e-20 0.110924)
(8.52268 -1.05789e-20 0.0755595)
(8.90726 -6.07434e-20 0.123602)
(8.29675 -1.56567e-19 0.0834268)
(8.71107 3.29697e-20 0.137555)
(8.05396 -5.6579e-20 0.0921767)
(8.49762 -4.57574e-19 0.15299)
(7.79307 1.35797e-19 0.101956)
(8.26583 6.73156e-19 0.170134)
(7.5127 -1.9571e-20 0.112926)
(8.0144 -8.36163e-19 0.189226)
(7.21131 -1.8927e-20 0.125262)
(7.74195 5.76058e-19 0.210528)
(6.88725 4.35348e-20 0.139146)
(7.44687 6.14606e-19 0.234301)
(6.53879 4.21305e-20 0.154775)
(7.1274 -1.35723e-18 0.260796)
(6.16419 -3.94958e-19 0.172353)
(6.7818 -1.15215e-20 0.290265)
(5.76173 -7.36371e-20 0.192072)
(6.4083 3.1519e-19 0.322917)
(5.32982 2.99462e-19 0.21409)
(6.00509 2.10716e-19 0.358867)
(4.86714 2.37812e-19 0.23852)
(5.57053 1.6029e-18 0.398094)
(4.3728 1.26143e-18 0.265392)
(5.10315 5.18324e-20 0.440384)
(3.84663 1.84757e-19 0.294526)
(4.60221 -7.65867e-19 0.485223)
(3.28951 6.9828e-19 0.325405)
(4.06732 -1.04607e-18 0.531484)
(2.70385 8.32987e-19 0.356996)
(3.49892 1.22127e-18 0.577225)
(2.09436 -5.51912e-18 0.386875)
(2.89921 -4.50295e-18 0.6193)
(1.47004 -1.07023e-18 0.407812)
(2.27176 4.44392e-19 0.651529)
(0.849831 3.77026e-18 0.392242)
(1.62233 3.12067e-18 0.659375)
(0.277795 2.83603e-18 0.186847)
(0.938292 0 0.603068)
(0.409307 -1.29529e-18 0.314075)
(10.0002 -8.63697e-20 0.0476438)
(10.0028 -2.41447e-19 0.0377853)
(9.96673 9.47671e-20 0.0622762)
(9.98562 2.26001e-20 0.0589128)
(9.91431 1.88751e-19 0.074806)
(9.94559 -4.59347e-20 0.0753889)
(9.84523 1.44555e-19 0.0880507)
(9.88647 -9.5344e-20 0.0930014)
(9.75982 4.8839e-20 0.101907)
(9.81159 1.47744e-19 0.111431)
(9.65849 1.61623e-19 0.116397)
(9.72194 -1.0147e-19 0.130531)
(9.54143 1.55699e-19 0.131808)
(9.61747 5.36101e-20 0.150669)
(9.40846 -2.8904e-20 0.148456)
(9.49797 -1.08426e-19 0.172268)
(9.25918 -2.78963e-20 0.166626)
(9.36315 8.53481e-20 0.195714)
(9.09296 -1.55581e-20 0.186586)
(9.21268 -2.3158e-19 0.221356)
(8.90899 -2.76507e-19 0.208622)
(9.04589 5.61726e-19 0.249563)
(8.70626 2.91515e-19 0.233057)
(8.86187 -7.55871e-19 0.280754)
(8.48362 -3.24359e-19 0.260237)
(8.65967 1.06718e-18 0.315382)
(8.23972 -2.1684e-19 0.290536)
(8.43811 -1.37617e-18 0.353928)
(7.97309 1.2103e-18 0.324355)
(8.1959 5.6005e-19 0.396934)
(7.68203 -8.18542e-19 0.362092)
(7.93156 6.88574e-19 0.444974)
(7.36476 -1.38918e-18 0.404127)
(7.64337 -1.47719e-18 0.4986)
(7.01942 7.03793e-19 0.450811)
(7.32958 -1.1523e-20 0.558341)
(6.64414 5.98095e-19 0.502414)
(6.98837 2.2453e-18 0.624693)
(6.23705 1.53543e-18 0.559043)
(6.61777 -3.1281e-18 0.698015)
(5.79636 1.39415e-18 0.620571)
(6.21578 6.12556e-18 0.778426)
(5.32057 -1.9862e-18 0.686535)
(5.78036 -3.32554e-18 0.865668)
(4.80862 -2.00087e-18 0.755867)
(5.30976 -1.36449e-18 0.95898)
(4.25998 -4.9649e-19 0.826489)
(4.80228 6.4149e-19 1.05665)
(3.67489 -4.16873e-18 0.894969)
(4.2559 -2.5638e-19 1.15542)
(3.05463 1.4937e-18 0.955475)
(3.66899 -4.86412e-18 1.25004)
(2.40099 4.64348e-18 0.997038)
(3.03891 4.23716e-18 1.33155)
(1.71268 -6.408e-19 0.998832)
(2.36048 -6.36687e-19 1.38343)
(0.958036 -4.16402e-18 0.908464)
(1.59111 -1.21551e-18 1.38392)
(0.911746 -2.61188e-18 1.26152)
(9.99312 -1.27693e-19 0.0522144)
(10.0006 -1.74832e-19 0.0407235)
(9.96356 -1.19522e-19 0.0752405)
(9.98099 4.50122e-20 0.0719681)
(9.91508 -3.31078e-19 0.0963303)
(9.9422 -2.31376e-19 0.0976165)
(9.85117 -8.75184e-20 0.118349)
(9.88624 -9.64448e-20 0.123415)
(9.77258 -7.26957e-21 0.141452)
(9.81528 9.81061e-20 0.150231)
(9.67959 -2.06664e-19 0.165752)
(9.73033 -1.01624e-19 0.178125)
(9.57237 -2.13486e-19 0.191654)
(9.63159 1.0318e-19 0.207539)
(9.45083 9.28047e-21 0.219625)
(9.51893 -7.00983e-22 0.239049)
(9.31464 -1.23939e-19 0.250106)
(9.39217 2.25207e-19 0.273192)
(9.16334 3.59498e-19 0.28354)
(9.25112 -2.31642e-19 0.310475)
(8.99623 5.97517e-20 0.320411)
(9.09519 5.17417e-19 0.351451)
(8.81245 5.07711e-20 0.36125)
(8.92369 -9.97648e-19 0.396729)
(8.61101 -2.58165e-20 0.406633)
(8.73586 1.05105e-18 0.446955)
(8.39076 -5.66925e-19 0.457193)
(8.53076 5.36845e-19 0.502842)
(8.15037 4.02868e-20 0.513626)
(8.3073 8.55349e-20 0.565189)
(7.88837 -5.5165e-21 0.576641)
(8.06429 -5.27908e-20 0.634864)
(7.60307 -7.57105e-20 0.646932)
(7.80029 -9.73137e-19 0.712742)
(7.29269 1.56569e-18 0.725161)
(7.51377 2.54084e-18 0.799681)
(6.95528 -1.56391e-18 0.811905)
(7.20305 -1.23462e-18 0.896529)
(6.58879 1.60028e-18 0.907531)
(6.86625 -2.34721e-18 1.00402)
(6.19099 1.27125e-18 1.01205)
(6.50128 7.78629e-18 1.12263)
(5.75951 -2.67752e-18 1.12499)
(6.10573 -6.13749e-18 1.25242)
(5.29188 1.30311e-18 1.24511)
(5.67694 1.87011e-20 1.39285)
(4.78533 8.71032e-19 1.36982)
(5.21173 4.48066e-20 1.54243)
(4.23629 -1.00022e-18 1.49483)
(4.70562 7.0406e-18 1.69806)
(3.6396 -2.04787e-18 1.6135)
(4.15261 -8.30177e-18 1.85484)
(2.98599 -1.05359e-18 1.71571)
(3.54352 6.77288e-18 2.00572)
(2.25511 -1.2044e-18 1.78932)
(2.86485 -8.21338e-18 2.14072)
(1.39804 2.84732e-19 1.82979)
(2.06681 -1.08106e-19 2.25648)
(1.24277 1.41422e-18 2.35229)
(9.98872 1.86026e-21 0.0609178)
(9.99929 2.8467e-19 0.0455426)
(9.9593 -7.239e-20 0.0936071)
(9.97774 4.24206e-19 0.0849645)
(9.91173 5.93597e-21 0.123904)
(9.93875 -9.2506e-20 0.119444)
(9.84887 9.29372e-20 0.154536)
(9.88383 9.47679e-20 0.153354)
(9.77185 0 0.186228)
(9.81435 0 0.188286)
(9.68103 2.12027e-19 0.219377)
(9.7312 0 0.224648)
(9.5766 3.14146e-19 0.254553)
(9.63473 1.23414e-21 0.262981)
(9.45856 2.19256e-19 0.292381)
(9.52489 3.20951e-19 0.303965)
(9.32674 1.09491e-19 0.333466)
(9.40163 1.3691e-21 0.348264)
(9.18081 -6.08015e-20 0.378425)
(9.26484 4.58663e-19 0.396533)
(9.02025 -5.66037e-19 0.427923)
(9.11404 -6.4659e-19 0.449472)
(8.84444 3.72499e-20 0.482676)
(8.94873 -4.98917e-19 0.507833)
(8.65265 1.60528e-18 0.543469)
(8.76836 5.03182e-19 0.572426)
(8.444 1.18229e-18 0.611171)
(8.57222 1.91428e-20 0.644161)
(8.2175 -9.79483e-21 0.686742)
(8.35949 2.26853e-18 0.724053)
(7.97202 -1.03534e-18 0.771196)
(8.12925 -1.18066e-18 0.813206)
(7.70627 1.69882e-18 0.86556)
(7.88046 -1.04428e-18 0.912777)
(7.4188 -3.16902e-19 0.970866)
(7.61194 2.54178e-18 1.02395)
(7.10796 -2.03668e-18 1.0881)
(7.32234 -3.09478e-18 1.14795)
(6.77187 3.98899e-18 1.21809)
(7.01008 -1.99537e-18 1.28592)
(6.40831 1.82925e-19 1.36135)
(6.67329 5.32174e-18 1.43886)
(6.01454 -3.35908e-18 1.51788)
(6.30961 -3.71341e-18 1.60743)
(5.58713 -1.237e-18 1.68697)
(5.91599 3.51994e-19 1.79182)
(5.12159 6.27896e-18 1.8667)
(5.48836 -8.3406e-19 1.99143)
(4.61132 -3.75825e-19 2.05376)
(5.02076 7.84256e-18 2.20451)
(4.04625 5.82885e-19 2.24355)
(4.50452 -6.42808e-18 2.42826)
(3.41051 -3.8984e-19 2.43015)
(3.92683 2.30972e-17 2.65934)
(2.67789 -7.15953e-18 2.60652)
(3.27013 -2.31209e-17 2.89412)
(1.82038 1.06069e-18 2.78891)
(2.50481 6.04282e-19 3.12453)
(1.57287 0 3.41765)
(9.98645 7.09605e-19 0.0703021)
(9.99865 3.06107e-19 0.0513281)
(9.9566 3.93774e-19 0.111179)
(9.97598 1.34743e-19 0.0981618)
(9.90981 0 0.149557)
(9.9369 -9.12433e-20 0.140926)
(9.84804 0 0.188006)
(9.883 -1.86949e-19 0.182793)
(9.77249 0 0.227696)
(9.8151 -5.7909e-19 0.225639)
(9.68358 -2.10838e-19 0.269281)
(9.73388 1.9991e-19 0.270226)
(9.58149 1.37087e-20 0.313438)
(9.6397 -4.1143e-19 0.317224)
(9.46627 9.74014e-20 0.360887)
(9.53261 -4.23645e-19 0.367387)
(9.33784 3.5852e-19 0.412355)
(9.41265 6.51385e-19 0.421482)
(9.19594 -1.46081e-19 0.468588)
(9.27973 9.12164e-19 0.480312)
(9.04017 -5.77047e-19 0.530372)
(9.13345 -1.87062e-18 0.544702)
(8.87006 -1.61197e-20 0.598551)
(8.97346 9.5731e-19 0.615513)
(8.68505 -1.09145e-18 0.674064)
(8.7993 4.62542e-20 0.693691)
(8.48451 1.14145e-18 0.757963)
(8.61044 -1.06689e-18 0.780308)
(8.26767 1.04296e-18 0.851406)
(8.40627 -3.76816e-20 0.87656)
(8.03371 -1.18777e-18 0.955634)
(8.18609 -1.08646e-18 0.983744)
(7.78168 -1.45462e-19 1.07195)
(7.94914 -1.81482e-19 1.10324)
(7.5105 -3.22589e-19 1.20173)
(7.69455 2.36686e-18 1.23652)
(7.21889 -3.0356e-18 1.34634)
(7.42131 3.00484e-19 1.38516)
(6.9053 -5.60411e-19 1.5071)
(7.12817 -2.68728e-18 1.55073)
(6.56773 1.30324e-18 1.68515)
(6.81355 7.76458e-18 1.7348)
(6.20354 4.80698e-20 1.88132)
(6.47535 -6.2069e-18 1.93878)
(5.80898 7.409e-19 2.09596)
(6.11062 5.80773e-18 2.16387)
(5.37871 8.21916e-19 2.3286)
(5.7151 -5.92062e-18 2.41088)
(4.90488 1.67702e-18 2.57781)
(5.28248 7.01096e-18 2.67992)
(4.37563 1.6174e-17 2.8419)
(4.8034 7.34762e-18 2.9706)
(3.77387 3.88041e-19 3.11959)
(4.26466 2.05774e-18 3.28259)
(3.07164 -1.55005e-17 3.40309)
(3.64431 -2.76993e-17 3.61824)
(2.26953 -4.6585e-19 3.71217)
(2.9595 1.41511e-17 3.94169)
(1.93785 0 4.40879)
(9.98532 -2.72004e-19 0.0800599)
(9.99837 0 0.0575948)
(9.95521 -3.54906e-19 0.128575)
(9.97519 -9.74886e-19 0.11148)
(9.90933 -2.8011e-19 0.174824)
(9.93634 -2.73571e-19 0.162002)
(9.84899 -7.73663e-19 0.221109)
(9.88366 3.73483e-19 0.211572)
(9.77528 -3.64743e-19 0.268814)
(9.81761 -1.9625e-21 0.262115)
(9.68865 -1.18038e-20 0.31878)
(9.73867 3.07834e-21 0.314676)
(9.5893 -8.49152e-19 0.371778)
(9.64719 -4.07465e-19 0.370061)
(9.47732 1.49193e-19 0.428606)
(9.54332 -6.37223e-19 0.429096)
(9.35267 1.20981e-18 0.490104)
(9.42713 7.6114e-19 0.492643)
(9.21513 -8.59907e-19 0.557145)
(9.29854 1.34883e-18 0.561629)
(9.06442 -2.88908e-19 0.63063)
(9.15728 -2.19797e-18 0.636997)
(8.90013 1.00505e-18 0.71152)
(9.00305 9.57941e-19 0.719709)
(8.72185 5.29642e-20 0.80089)
(8.83549 7.86954e-22 0.810827)
(8.52907 -2.22983e-18 0.899952)
(8.65416 -1.13294e-22 0.911551)
(8.32122 -2.18568e-18 1.01004)
(8.4586 -8.14438e-20 1.02324)
(8.09768 -6.57459e-20 1.13259)
(8.24831 -4.36008e-18 1.14734)
(7.85776 2.3693e-18 1.26913)
(8.02272 2.18913e-18 1.28543)
(7.60066 2.96099e-18 1.42135)
(7.78118 4.70013e-18 1.43925)
(7.3254 6.06782e-19 1.591)
(7.52293 -2.06062e-18 1.61067)
(7.03071 5.77843e-18 1.7799)
(7.24699 -3.14485e-19 1.80172)
(6.71493 8.32566e-20 1.98983)
(6.9521 5.70784e-18 2.01448)
(6.37567 -3.14135e-19 2.22255)
(6.63645 -4.8224e-18 2.25118)
(6.00942 -9.6142e-19 2.4797)
(6.29746 5.05669e-18 2.5141)
(5.6109 3.66717e-19 2.76262)
(5.93123 -2.52831e-19 2.80557)
(5.17234 1.26742e-17 3.07208)
(5.53199 -1.1956e-17 3.12774)
(4.68238 -6.68947e-18 3.40855)
(5.091 1.83329e-17 3.4824)
(4.12597 -2.59466e-17 3.77428)
(4.59698 -5.49235e-19 3.87043)
(3.4717 1.46891e-18 4.1571)
(4.01874 -2.59334e-17 4.30213)
(2.74201 1.39727e-17 4.56918)
(3.4444 1.44302e-17 4.69685)
(2.34214 4.24349e-19 5.31662)
(9.98484 -7.20523e-19 0.0899882)
(9.9983 -6.45734e-19 0.0640658)
(9.95481 -8.79563e-19 0.145764)
(9.97504 6.57836e-19 0.124767)
(9.91002 3.92794e-19 0.199539)
(9.93677 -1.82369e-19 0.182599)
(9.85138 1.13839e-18 0.253389)
(9.88554 3.76182e-19 0.239566)
(9.77983 3.66141e-19 0.308809)
(9.8216 7.70114e-19 0.297557)
(9.69586 -4.00158e-19 0.36681)
(9.74526 -5.87682e-19 0.357811)
(9.5997 -1.99488e-19 0.428269)
(9.65687 8.0569e-19 0.421263)
(9.49147 -8.02351e-22 0.494075)
(9.55666 2.10505e-19 0.488817)
(9.37115 9.10049e-19 0.565173)
(9.44473 -6.39396e-19 0.561431)
(9.23862 -4.87133e-20 0.642552)
(9.32104 8.9591e-19 0.640131)
(9.09363 -8.98951e-19 0.72722)
(9.18542 -1.14007e-18 0.725967)
(8.93587 -6.23833e-20 0.820243)
(9.03765 0 0.820007)
(8.765 -5.23645e-20 0.922804)
(8.87744 -1.81255e-19 0.92341)
(8.58064 2.14805e-18 1.03625)
(8.70442 1.94236e-18 1.03749)
(8.38234 -2.31973e-18 1.16205)
(8.51824 2.11851e-18 1.16374)
(8.16964 -2.00977e-18 1.30182)
(8.31859 -8.58627e-18 1.30375)
(7.94206 4.55788e-18 1.4573)
(8.10501 6.5789e-18 1.45927)
(7.69898 -4.16197e-19 1.63044)
(7.87702 -2.29579e-18 1.63226)
(7.43964 -2.9607e-18 1.82336)
(7.63407 -3.81951e-19 1.82494)
(7.16306 -3.07557e-19 2.03836)
(7.37544 -3.11501e-19 2.0397)
(6.86785 6.73382e-19 2.27791)
(7.10008 -3.04583e-19 2.27919)
(6.552 6.5927e-19 2.54471)
(6.80653 9.7897e-19 2.54641)
(6.21251 5.70582e-18 2.84159)
(6.49274 0 2.84466)
(5.84484 -1.26125e-17 3.17161)
(6.15542 5.98607e-18 3.17759)
(5.44211 -6.17398e-18 3.5378)
(5.78976 -1.81178e-17 3.54922)
(4.99422 2.44042e-17 3.94204)
(5.38825 2.25533e-17 3.96356)
(4.48967 -4.92167e-19 4.38865)
(4.94354 1.00433e-18 4.42093)
(3.89222 -1.33354e-17 4.8601)
(4.40796 -1.31108e-17 4.9425)
(3.23705 3.47026e-19 5.35334)
(3.95862 -9.96635e-20 5.39043)
(2.78105 2.46907e-20 6.14446)
(9.98476 7.56466e-19 0.0999126)
(9.99838 4.14101e-20 0.0705719)
(9.95517 1.33866e-18 0.162624)
(9.97534 1.27643e-18 0.137868)
(9.91167 -1.88184e-19 0.223565)
(9.93798 -6.2805e-19 0.202621)
(9.85499 1.50797e-20 0.284681)
(9.88844 -3.68375e-19 0.266656)
(9.78591 -2.09004e-19 0.347528)
(9.82687 3.81329e-19 0.331815)
(9.70493 6.43551e-19 0.413254)
(9.75345 -8.72074e-22 0.39946)
(9.61234 1.20564e-18 0.482833)
(9.66854 6.10195e-19 0.470638)
(9.50828 -4.4289e-19 0.557236)
(9.57242 5.1669e-21 0.54633)
(9.39279 -6.28066e-19 0.637503)
(9.46521 -8.49364e-19 0.627575)
(9.26582 -2.29541e-19 0.724722)
(9.34696 2.16157e-19 0.715492)
(9.12721 -2.22162e-19 0.820003)
(9.21759 2.19844e-19 0.811227)
(8.97673 -1.21789e-19 0.924511)
(9.07695 0 0.915949)
(8.81412 1.84726e-18 1.03953)
(8.92485 -1.59241e-21 1.03092)
(8.63908 1.91624e-18 1.16653)
(8.76095 1.99738e-18 1.15754)
(8.45127 -4.30887e-18 1.3071)
(8.58507 2.55142e-20 1.29744)
(8.25038 2.22144e-19 1.46299)
(8.39705 -6.31088e-18 1.45232)
(8.03608 -3.98081e-19 1.63616)
(8.19649 8.55524e-18 1.62409)
(7.80789 -2.24137e-18 1.82884)
(7.98308 -6.65897e-18 1.81496)
(7.56527 2.27247e-18 2.04348)
(7.75647 -2.18841e-18 2.02743)
(7.30747 -3.08128e-19 2.28282)
(7.51616 9.16373e-18 2.26427)
(7.03339 1.45425e-20 2.54997)
(7.26136 -4.68039e-18 2.52865)
(6.74145 3.10228e-19 2.84854)
(6.99096 1.02875e-20 2.82426)
(6.42926 3.30762e-19 3.18252)
(6.70344 9.83999e-18 3.15541)
(6.09322 3.26873e-19 3.55632)
(6.39629 7.35636e-20 3.52695)
(5.72786 1.07298e-17 3.9749)
(6.06567 -1.00883e-17 3.94427)
(5.32429 -7.7293e-19 4.44147)
(5.70511 7.9604e-19 4.41359)
(4.87481 -1.15651e-17 4.9615)
(5.31342 -1.26905e-18 4.93365)
(4.33795 0 5.512)
(4.81901 0 5.53961)
(3.75084 -4.13499e-19 6.06922)
(4.49663 9.93798e-18 6.02897)
(3.24743 -1.15346e-17 6.89687)
(9.98495 5.83637e-19 0.109691)
(9.99859 6.09558e-21 0.0769942)
(9.9561 -7.28904e-19 0.179033)
(9.97598 -8.75285e-19 0.150653)
(9.91412 -8.03366e-19 0.246788)
(9.93978 1.7621e-19 0.221967)
(9.85964 1.20271e-20 0.314854)
(9.89219 1.82917e-19 0.292724)
(9.79335 5.82611e-19 0.384826)
(9.83323 -1.8592e-19 0.364734)
(9.71575 -2.3387e-20 0.457945)
(9.76307 3.90271e-19 0.439435)
(9.62714 -6.01577e-19 0.535268)
(9.68204 -7.95522e-19 0.517965)
(9.52773 -4.15999e-19 0.617845)
(9.59045 1.0135e-18 0.601377)
(9.4176 1.2986e-20 0.706796)
(9.48847 -8.31017e-19 0.690784)
(9.29677 6.65956e-19 0.803297)
(9.3762 2.0761e-21 0.787387)
(9.16515 4.38881e-19 0.908552)
(9.25366 7.39214e-21 0.892413)
(9.02263 1.20258e-19 1.02383)
(9.12079 -2.03649e-18 1.00712)
(8.86902 1.78501e-19 1.15051)
(8.97749 1.95999e-18 1.13288)
(8.70411 7.59691e-20 1.29014)
(8.82348 -1.73131e-18 1.27118)
(8.52774 -2.06695e-18 1.44446)
(8.65875 3.91654e-18 1.42371)
(8.33972 2.23059e-18 1.61535)
(8.48332 -4.02916e-18 1.59234)
(8.1398 2.09317e-18 1.80495)
(8.29683 4.23432e-18 1.77912)
(7.92768 -6.54905e-18 2.01574)
(8.09916 -6.24988e-18 1.98649)
(7.70304 4.83038e-18 2.25051)
(7.89018 4.10433e-18 2.21719)
(7.46538 4.65314e-18 2.51244)
(7.66961 4.73507e-18 2.47438)
(7.21392 -4.64393e-18 2.80523)
(7.43695 -4.38118e-18 2.76172)
(6.94751 9.61586e-18 3.13323)
(7.19149 -3.03104e-19 3.08353)
(6.66442 9.53617e-18 3.50158)
(6.93221 9.84829e-18 3.44497)
(6.36192 -1.03673e-17 3.91593)
(6.65742 -2.5525e-19 3.85215)
(6.03594 -1.99831e-17 4.38261)
(6.36428 -7.10646e-19 4.3116)
(5.67869 2.66609e-19 4.90625)
(6.04644 -1.95228e-17 4.83156)
(5.2854 1.02703e-17 5.49368)
(5.71051 1.55416e-18 5.40883)
(4.80981 9.84312e-18 6.11687)
(5.25564 9.15176e-18 6.09513)
(4.27717 -3.01045e-18 6.72699)
(5.05167 1.08993e-18 6.62369)
(3.73477 -1.14814e-18 7.58439)
(9.98535 -1.46921e-18 0.119212)
(9.9989 8.31258e-20 0.083244)
(9.95748 5.09594e-20 0.194885)
(9.97686 -8.72245e-19 0.163017)
(9.91721 1.16315e-18 0.269105)
(9.94208 8.05005e-19 0.240546)
(9.86517 -2.19271e-20 0.34378)
(9.89667 3.6697e-19 0.317664)
(9.80195 -3.68034e-19 0.42053)
(9.84054 -7.45109e-19 0.396175)
(9.72808 -4.03135e-19 0.500665)
(9.77391 -3.80724e-19 0.477558)
(9.64389 8.51425e-19 0.585318)
(9.69709 -3.75815e-21 0.563025)
(9.5496 5.67782e-19 0.675608)
(9.61045 1.22381e-18 0.653704)
(9.44534 -8.28541e-19 0.772726)
(9.51416 -1.43981e-18 0.750774)
(9.3312 -6.56992e-19 0.877922)
(9.40837 -1.06072e-18 0.855496)
(9.20719 -2.50158e-18 0.99248)
(9.29322 6.37115e-19 0.969167)
(9.07329 -1.36289e-19 1.11776)
(9.16872 -3.81593e-18 1.09312)
(8.9294 -4.26081e-21 1.25524)
(9.03487 3.64907e-18 1.22883)
(8.77542 2.19077e-18 1.40654)
(8.89153 -3.77838e-18 1.37788)
(8.61135 1.84764e-18 1.57349)
(8.7388 5.79909e-18 1.54196)
(8.43715 -1.91743e-18 1.75813)
(8.57682 -1.85651e-18 1.72311)
(8.2527 -4.24614e-18 1.96278)
(8.4054 3.22802e-20 1.92356)
(8.05791 4.52794e-18 2.19015)
(8.22462 -4.23202e-18 2.1459)
(7.85269 4.02792e-18 2.4433)
(8.03464 8.61597e-18 2.39311)
(7.63681 -4.40353e-18 2.72586)
(7.83535 -4.38267e-18 2.66868)
(7.40984 0 3.0421)
(7.62663 0 2.97678)
(7.17113 0 3.39708)
(7.40822 0 3.32233)
(6.9196 -2.82642e-22 3.79688)
(7.17965 8.69875e-18 3.71128)
(6.65333 9.3988e-18 4.24848)
(6.9399 -8.70289e-18 4.15084)
(6.36925 -2.32486e-19 4.75962)
(6.68738 8.85193e-18 4.64899)
(6.06033 -1.82819e-17 5.33618)
(6.41487 -9.35667e-18 5.21615)
(5.72301 4.62322e-19 5.98719)
(6.13704 -9.18991e-18 5.84736)
(5.30788 4.60058e-19 6.68164)
(5.72189 9.13567e-18 6.61178)
(4.81139 2.86861e-18 7.34521)
(5.62083 -1.03234e-18 7.19056)
(4.24235 1.15118e-18 8.23701)
(9.98589 6.63546e-19 0.128396)
(9.99926 7.65495e-19 0.0892676)
(9.9592 -8.47857e-20 0.210089)
(9.97794 -8.65367e-20 0.174867)
(9.92089 0 0.290423)
(9.94478 0 0.258251)
(9.87147 -3.77158e-19 0.371351)
(9.90176 -7.19792e-19 0.341384)
(9.81156 -7.51307e-19 0.4545)
(9.84868 -3.6723e-19 0.426033)
(9.74168 2.54208e-20 0.541234)
(9.78583 -2.25782e-21 0.51369)
(9.66223 3.89676e-19 0.632759)
(9.71354 1.55524e-18 0.605643)
(9.57345 -8.29085e-19 0.730263)
(9.63217 9.28092e-21 0.703101)
(9.47551 -1.66619e-18 0.834994)
(9.54196 -2.0317e-18 0.807295)
(9.36857 2.60584e-19 0.94826)
(9.4431 -1.68056e-18 0.919528)
(9.25272 -7.44791e-19 1.07141)
(9.33581 2.34657e-18 1.04116)
(9.12803 8.11934e-20 1.20588)
(9.22023 -1.56135e-18 1.17358)
(8.99457 -2.32735e-19 1.35323)
(9.09636 1.58671e-18 1.31833)
(8.85234 -3.7969e-20 1.51516)
(8.96439 -1.98665e-18 1.47709)
(8.70143 1.99176e-18 1.69356)
(8.82448 1.89566e-18 1.65162)
(8.54197 1.19508e-19 1.8906)
(8.67674 2.13561e-18 1.84399)
(8.37405 -2.01989e-21 2.10879)
(8.52138 -1.91752e-18 2.05663)
(8.19784 -1.97551e-21 2.351)
(8.35866 3.92869e-18 2.29223)
(8.0135 6.69749e-20 2.62061)
(8.18893 -3.95997e-18 2.554)
(7.82112 6.57958e-20 2.9216)
(8.01243 -1.82663e-19 2.84578)
(7.62067 0 3.25875)
(7.8295 0 3.17213)
(7.41202 8.75007e-18 3.63787)
(7.64034 0 3.53853)
(7.19481 -4.72546e-20 4.06596)
(7.44513 8.71819e-18 3.95175)
(6.96794 -9.23765e-18 4.55138)
(7.24352 -6.50026e-19 4.42014)
(6.72907 -2.62409e-19 5.10379)
(7.03525 -1.49769e-17 4.95335)
(6.4714 -2.59994e-19 5.73079)
(6.81208 3.86966e-19 5.56482)
(6.19031 -5.38115e-19 6.44476)
(6.59591 7.05754e-18 6.24935)
(5.83571 7.70045e-18 7.21592)
(6.22599 0 7.09221)
(5.36077 -2.62967e-18 7.95396)
(6.21325 1.01904e-18 7.74734)
(4.7845 -2.07673e-18 8.91033)
(9.98652 0 0.137175)
(9.99967 8.39549e-20 0.0950218)
(9.9612 0 0.224549)
(9.97923 -8.53685e-20 0.186122)
(9.92501 -7.33886e-19 0.310639)
(9.94779 -1.75237e-19 0.274998)
(9.87844 -7.03469e-19 0.397457)
(9.90731 -1.83311e-19 0.363782)
(9.82208 3.88808e-19 0.486612)
(9.85754 1.10173e-18 0.454181)
(9.75649 1.5555e-18 0.579507)
(9.79873 7.54406e-19 0.547682)
(9.68209 1.14894e-18 0.677424)
(9.73124 7.79847e-19 0.645661)
(9.59915 -1.22722e-18 0.781613)
(9.65545 7.90871e-19 0.749385)
(9.50792 -2.04068e-18 0.893366)
(9.57166 -1.2054e-18 0.860132)
(9.40859 4.68313e-19 1.01403)
(9.48011 -1.23564e-18 0.979241)
(9.30136 1.47212e-18 1.14501)
(9.38112 4.35552e-19 1.10811)
(9.18639 -9.41045e-21 1.2878)
(9.27492 2.18315e-19 1.24818)
(9.0639 -2.18161e-19 1.44402)
(9.16155 4.29751e-19 1.40102)
(8.93407 0 1.61546)
(9.04147 4.40911e-19 1.56839)
(8.79708 2.04172e-18 1.80404)
(8.91497 0 1.75213)
(8.65325 5.11135e-20 2.01205)
(8.78221 1.78757e-18 1.95434)
(8.50291 2.07908e-18 2.24212)
(8.64377 -5.89219e-18 2.17753)
(8.34645 -1.06008e-19 2.49726)
(8.50012 3.68276e-18 2.42453)
(8.18432 -4.18185e-18 2.7811)
(8.35179 -1.649e-19 2.69873)
(8.01705 -2.47573e-19 3.09802)
(8.19942 -4.82882e-19 3.00423)
(7.84515 0 3.45322)
(8.04399 0 3.34594)
(7.66906 0 3.85314)
(7.88628 0 3.72982)
(7.48912 8.09442e-18 4.30586)
(7.72711 8.07513e-18 4.16344)
(7.30518 -6.35323e-18 4.82117)
(7.56708 5.6984e-19 4.65638)
(7.11582 -1.43937e-17 5.41129)
(7.40726 -1.6316e-17 5.22017)
(6.91456 7.64296e-18 6.08719)
(7.23929 -1.60399e-18 5.87222)
(6.69366 7.63463e-18 6.86706)
(7.0914 7.61468e-18 6.61065)
(6.4055 -6.69819e-18 7.72828)
(6.7824 0 7.53405)
(5.95574 1.37567e-18 8.58991)
(6.85652 -1.05565e-18 8.30482)
(5.39867 -1.1596e-17 9.66998)
(9.9873 -4.35047e-21 0.145489)
(10.0001 8.40033e-20 0.100445)
(9.96347 -2.62476e-19 0.238203)
(9.98077 1.2698e-18 0.196728)
(9.92949 3.75524e-19 0.329675)
(9.9511 -3.49279e-19 0.290753)
(9.88592 1.64657e-18 0.421986)
(9.91327 7.1446e-19 0.384779)
(9.83336 1.46157e-18 0.516724)
(9.86702 7.39489e-19 0.480495)
(9.77234 -2.14151e-20 0.61533)
(9.81248 1.1166e-18 0.579399)
(9.70326 4.21464e-19 0.719145)
(9.75003 -3.81725e-19 0.682932)
(9.62648 7.8119e-19 0.829464)
(9.68008 -3.6973e-19 0.79239)
(9.54229 -3.99773e-19 0.947617)
(9.60299 1.07371e-20 0.909087)
(9.45096 -1.24359e-18 1.07499)
(9.5191 -3.98832e-19 1.03441)
(9.35278 -8.23309e-19 1.21301)
(9.42878 -3.30385e-18 1.16975)
(9.24801 6.60829e-19 1.36322)
(9.33235 1.66661e-18 1.31661)
(9.13698 1.09013e-18 1.52727)
(9.22996 -1.48372e-18 1.47658)
(9.02002 4.35651e-19 1.70701)
(9.12219 1.73182e-18 1.65144)
(8.89753 -2.33889e-19 1.90441)
(9.00957 0 1.84307)
(8.77002 -4.248e-18 2.1218)
(8.89241 -2.31368e-19 2.05359)
(8.63809 -4.19537e-18 2.36192)
(8.77156 -7.36786e-18 2.28557)
(8.50236 3.58793e-18 2.62791)
(8.64771 4.05323e-18 2.54198)
(8.36361 3.54472e-18 2.92355)
(8.52169 4.26856e-18 2.82628)
(8.22288 -2.3206e-19 3.25348)
(8.39467 3.89808e-18 3.14267)
(8.08135 0 3.62334)
(8.26817 -7.3109e-18 3.49633)
(7.94021 8.10906e-18 4.04012)
(8.14381 3.62944e-18 3.89372)
(7.80063 5.50548e-19 4.51288)
(8.02319 1.47484e-17 4.34301)
(7.66354 -9.38221e-18 5.05305)
(7.90825 -1.36859e-17 4.85498)
(7.52905 -3.55249e-18 5.67583)
(7.80175 -9.82222e-19 5.44309)
(7.39247 -1.73188e-18 6.39764)
(7.69703 -1.04579e-19 6.12911)
(7.24307 0 7.24661)
(7.62834 -5.72278e-18 6.91895)
(7.04071 5.66549e-18 8.21634)
(7.41045 5.52641e-18 7.92144)
(6.65384 -1.46196e-17 9.28287)
(7.59699 7.86375e-18 8.85217)
(6.14894 -2.19152e-17 10.572)
(9.9882 1.37993e-18 0.15328)
(10.0007 -1.32149e-18 0.105483)
(9.96601 1.15136e-18 0.251001)
(9.98242 -1.51017e-18 0.206626)
(9.93435 9.90045e-21 0.34748)
(9.95466 -6.89561e-19 0.305461)
(9.89394 -1.92809e-19 0.44485)
(9.91964 5.29934e-19 0.404311)
(9.84535 4.00679e-19 0.544719)
(9.87706 1.6203e-21 0.504889)
(9.78909 7.3086e-19 0.648565)
(9.82693 3.69918e-19 0.608738)
(9.72556 -1.17337e-18 0.757766)
(9.76968 3.75542e-19 0.717335)
(9.65517 -1.13529e-18 0.873635)
(9.7058 -7.74226e-19 0.83198)
(9.57831 5.51151e-21 0.997535)
(9.63562 3.92934e-19 0.954001)
(9.49533 -2.5034e-18 1.13088)
(9.55964 4.0065e-19 1.08482)
(9.40654 -7.42369e-19 1.27513)
(9.47831 -3.28291e-18 1.22588)
(9.31234 -5.22008e-19 1.43182)
(9.39194 3.30494e-18 1.37865)
(9.21317 -8.01906e-19 1.60263)
(9.30086 -4.22555e-18 1.54473)
(9.10953 1.2754e-18 1.78943)
(9.20578 3.3985e-18 1.72591)
(9.00204 0 1.99418)
(9.10747 -1.71666e-18 1.92407)
(8.89141 -3.42808e-18 2.21926)
(9.00639 1.72651e-18 2.14131)
(8.77846 9.96815e-19 2.46747)
(8.90355 -3.39614e-18 2.38026)
(8.66415 4.73821e-18 2.74202)
(8.80002 7.39197e-18 2.64392)
(8.5497 4.61838e-18 3.04676)
(8.69699 -3.93555e-18 2.93574)
(8.4367 -3.24546e-18 3.38641)
(8.59619 4.14504e-18 3.2599)
(8.327 -3.64991e-18 3.76692)
(8.49971 -7.33661e-18 3.62169)
(8.22278 1.0298e-17 4.19578)
(8.40999 3.64372e-18 4.02784)
(8.12639 5.30792e-19 4.68279)
(8.32993 9.98454e-18 4.48699)
(8.04037 -5.30967e-18 5.24088)
(8.26317 -8.63936e-18 5.0107)
(7.9673 2.47434e-18 5.88813)
(8.215 8.5624e-19 5.61382)
(7.90691 -4.06819e-18 6.64746)
(8.18306 1.62906e-18 6.32147)
(7.84992 -1.54266e-19 7.56045)
(8.20848 -3.23518e-18 7.14994)
(7.77386 7.73352e-18 8.6495)
(8.12698 5.53886e-18 8.21331)
(7.5388 -2.26998e-18 10.037)
(8.4914 9.45798e-19 9.33122)
(7.12081 -4.82205e-19 11.6528)
(9.98913 -4.21666e-18 0.160507)
(10.0012 -9.99437e-20 0.11013)
(9.96867 -3.33644e-18 0.262888)
(9.9841 -1.49366e-18 0.215775)
(9.93951 -1.46341e-19 0.36399)
(9.95839 1.25227e-18 0.31905)
(9.90238 7.14961e-19 0.465991)
(9.92637 6.87539e-19 0.422312)
(9.85789 -2.27387e-20 0.570534)
(9.8876 1.04309e-18 0.527312)
(9.80651 1.42978e-20 0.67914)
(9.84198 -1.41135e-18 0.635645)
(9.74868 7.56645e-19 0.793198)
(9.79012 3.80716e-19 0.748799)
(9.68488 7.73687e-19 0.914019)
(9.73255 3.86134e-19 0.868067)
(9.61555 7.88636e-19 1.04299)
(9.66955 -3.29631e-19 0.994775)
(9.54112 -4.3207e-19 1.18156)
(9.60171 4.01885e-19 1.13038)
(9.46199 8.58858e-19 1.3312)
(9.5296 1.05058e-18 1.27635)
(9.37862 -5.0056e-19 1.49341)
(9.45365 5.27101e-19 1.43415)
(9.29161 7.30845e-20 1.66988)
(9.37417 -1.7404e-18 1.60532)
(9.20164 3.4377e-19 1.86246)
(9.29217 2.14529e-18 1.79162)
(9.10953 4.76828e-20 2.07309)
(9.20858 -1.75289e-18 1.99491)
(9.01614 1.71094e-18 2.30416)
(9.12398 -1.43164e-18 2.2173)
(8.92256 3.10179e-18 2.55846)
(9.03957 2.8056e-18 2.46138)
(8.83014 -1.37911e-18 2.83916)
(8.95685 3.13721e-18 2.73007)
(8.74058 -4.36839e-18 3.15004)
(8.87748 -4.08266e-18 3.02667)
(8.65603 0 3.49584)
(8.80354 0 3.35528)
(8.57909 0 3.88251)
(8.73788 -7.75634e-19 3.72113)
(8.51303 3.32392e-18 4.31777)
(8.68369 7.5798e-19 4.13078)
(8.46187 8.44554e-19 4.81177)
(8.64555 3.39323e-18 4.59291)
(8.43058 -2.49525e-18 5.37813)
(8.62922 -5.39466e-18 5.11897)
(8.42554 0 6.0365)
(8.6433 0 5.72378)
(8.45435 2.51121e-18 6.81466)
(8.69249 -2.38413e-18 6.43247)
(8.51799 2.5215e-18 7.7646)
(8.82639 4.64512e-18 7.26816)
(8.6302 -1.28602e-18 8.94574)
(8.93349 -2.71519e-19 8.33447)
(8.71238 2.82227e-18 10.8353)
(9.66669 -2.89122e-18 9.56729)
(9.63214 2.47424e-18 12.8173)
(0.018873 -2.16025e-20 -0.0257519)
(-0.0125228 -4.16712e-19 -0.019794)
(0.116456 -2.31232e-20 -0.0441598)
(0.0421826 3.46706e-19 -0.0738552)
(0.251638 3.53007e-20 -0.045752)
(0.168322 -2.33564e-19 -0.0899804)
(0.385815 3.76237e-20 -0.036557)
(0.30478 2.21326e-19 -0.0805)
(0.493328 -7.03505e-20 -0.0241306)
(0.429683 -2.80188e-19 -0.0602095)
(0.566788 3.57829e-20 -0.0135148)
(0.526164 -7.09296e-20 -0.0398763)
(0.611543 7.17257e-20 -0.00638835)
(0.591554 2.50575e-19 -0.0242806)
(0.637623 -7.13282e-20 -0.00242715)
(0.632668 -3.5577e-20 -0.0143987)
(0.653412 1.05762e-20 -0.000364569)
(0.658498 -1.11076e-19 -0.00891937)
(0.662793 4.6734e-20 0.00113636)
(0.675471 -3.69397e-20 -0.00539286)
(0.666064 0 0.00242275)
(0.685893 3.71454e-20 -0.00185022)
(0.664938 0 0.0031169)
(0.689927 -1.48924e-19 0.000793474)
(0.662219 1.82437e-20 0.00428903)
(0.689605 3.7428e-20 0.00180064)
(0.655402 1.82754e-20 0.00682906)
(0.68686 3.66428e-20 0.00438664)
(0.639743 0 0.00905534)
(0.678947 0 0.00996765)
(0.619392 0 0.00909442)
(0.662607 0 0.0129699)
(0.601121 -1.57247e-20 0.00782446)
(0.641856 -3.2887e-20 0.0116887)
(0.581782 -1.58599e-20 0.00806019)
(0.623422 -1.24488e-22 0.012392)
(0.553154 3.35184e-21 0.00996849)
(0.605642 0 0.0183179)
(0.516198 1.32907e-23 0.0105295)
(0.580312 -3.12378e-20 0.0236293)
(0.482595 -1.63029e-20 0.00771223)
(0.547328 3.29819e-21 0.0214981)
(0.46427 -1.16915e-20 0.00202914)
(0.517003 -1.91741e-20 0.0117836)
(0.467145 1.36576e-21 -0.00497601)
(0.496928 -4.05528e-21 -0.00169983)
(0.491137 0 -0.0115644)
(0.491208 0 -0.0151374)
(0.5311 -6.22272e-21 -0.0169557)
(0.501797 1.67572e-21 -0.0253157)
(0.582842 -6.18559e-21 -0.0222272)
(0.525894 -1.38371e-20 -0.0328475)
(0.646526 3.25837e-22 -0.0287031)
(0.56117 -8.96704e-21 -0.0405013)
(0.72493 2.33047e-22 -0.0364098)
(0.608827 6.71759e-21 -0.0499452)
(0.821091 -4.36785e-22 -0.0436248)
(0.671369 -2.95472e-22 -0.0613907)
(0.779388 7.72345e-23 -0.0711521)
(0.000636662 -6.57752e-20 -0.0707022)
(-0.0231162 1.88058e-21 -0.0408285)
(0.0890601 1.67494e-19 -0.125678)
(0.0143123 3.69486e-19 -0.145192)
(0.218446 -6.52175e-20 -0.132614)
(0.122517 -3.10422e-19 -0.175829)
(0.353204 -8.02806e-20 -0.111892)
(0.24287 2.56381e-19 -0.158937)
(0.46912 -2.82119e-19 -0.082005)
(0.357802 -2.80044e-19 -0.122431)
(0.55588 1.44257e-19 -0.0548213)
(0.450159 -7.1732e-20 -0.0849471)
(0.615091 1.41452e-19 -0.0350604)
(0.51521 -1.48252e-19 -0.055258)