/*--------------------------------*- C++ -*----------------------------------*\
| =========                 |                                                 |
| \\      /  F ield         | OpenFOAM: The Open Source CFD Toolbox           |
|  \\    /   O peration     | Version:  5.x                                   |
|   \\  /    A nd           | Web:      www.OpenFOAM.org                      |
|    \\/     M anipulation  |                                                 |
\*---------------------------------------------------------------------------*/
FoamFile
{
    version     2.0;
    format      ascii;
    class       volVectorField;
    location    "3.6";
    object      U;
}
// * * * * * * * * * * * * * * * * * * * * * * * * * * * * * * * * * * * * * //

dimensions      [0 1 -1 0 0 0 0];

internalField   nonuniform List<vector> 
2790
(
(9.9437 0.020956 0)
(9.86597 0.0294534 2.96008e-20)
(9.75703 0.0353196 0)
(9.62619 0.0413899 3.12763e-20)
(9.47827 0.0476824 3.22418e-20)
(9.31375 0.0541389 -3.34425e-20)
(9.13208 0.0608781 3.43064e-20)
(8.93282 0.068039 0)
(8.71556 0.0757502 0)
(8.47971 0.0841324 0)
(8.22447 0.0932984 1.21531e-19)
(7.94883 0.103366 -2.08651e-19)
(7.65172 0.114454 -8.90561e-20)
(7.33201 0.126677 1.82932e-19)
(6.98855 0.140147 -9.6795e-20)
(6.62023 0.154971 -1.02056e-19)
(6.22604 0.171237 3.27208e-19)
(5.80518 0.188989 6.78129e-21)
(5.35719 0.208203 -4.83662e-19)
(4.88215 0.228775 0)
(4.38084 0.250487 0)
(3.85497 0.272954 0)
(3.30746 0.29556 0)
(2.74271 0.317371 0)
(2.16694 0.336989 0)
(1.5886 0.352306 0)
(1.01781 0.359957 0)
(0.480269 0.349195 0)
(-0.108609 0.115917 0)
(-0.148886 -0.440539 -2.23655e-18)
(10.0039 0.0413526 -1.00964e-19)
(9.98264 0.0616961 -1.46521e-20)
(9.93289 0.0770469 -1.50536e-19)
(9.85975 0.0931725 9.23845e-20)
(9.76675 0.110196 -3.17021e-20)
(9.65461 0.127952 0)
(9.52303 0.146671 2.02241e-19)
(9.37167 0.166654 -6.87924e-20)
(9.20018 0.188199 0)
(9.00806 0.211588 7.42624e-20)
(8.79455 0.237079 2.71939e-19)
(8.55866 0.264932 -1.98502e-19)
(8.29935 0.295393 8.33108e-20)
(8.01552 0.328684 1.74125e-19)
(7.70597 0.365 9.12004e-20)
(7.36952 0.404489 9.56105e-20)
(7.00506 0.447211 -1.51847e-18)
(6.61163 0.493075 1.68036e-18)
(6.18853 0.541748 0)
(5.73547 0.592623 -1.90705e-18)
(5.25284 0.644735 1.99769e-18)
(4.74185 0.696612 -4.84742e-18)
(4.20482 0.746143 4.55354e-18)
(3.64549 0.790361 0)
(3.06948 0.825088 0)
(2.4851 0.844186 1.42238e-18)
(1.90414 0.837485 -1.53708e-18)
(1.34539 0.783456 1.16427e-17)
(0.781767 0.612878 -1.44381e-17)
(0.520926 0.235113 3.12438e-17)
(10.0011 0.0434165 1.15396e-19)
(9.97705 0.0738079 -5.87944e-20)
(9.92969 0.0997798 -3.85835e-22)
(9.86161 0.126616 3.07235e-19)
(9.775 0.154902 -2.517e-19)
(9.6707 0.184604 2.6017e-19)
(9.54872 0.216026 -6.43689e-20)
(9.40885 0.249592 -7.55668e-19)
(9.25083 0.28577 5.67305e-19)
(9.0743 0.325026 -9.5454e-19)
(8.87861 0.3678 6.79276e-19)
(8.66286 0.414519 -7.12036e-19)
(8.42622 0.465596 -1.72156e-19)
(8.16768 0.52143 5.05033e-19)
(7.88612 0.58239 1.42663e-18)
(7.58038 0.648761 -1.46798e-18)
(7.24928 0.720699 1.17181e-18)
(6.89177 0.798155 -1.60835e-18)
(6.50679 0.880708 3.42658e-18)
(6.09346 0.967471 -3.10808e-18)
(5.65141 1.05697 -4.27093e-18)
(5.18075 1.14693 4.46524e-18)
(4.68227 1.23397 0)
(4.15773 1.3133 1.01604e-17)
(3.60998 1.37807 -1.07437e-17)
(3.04317 1.41836 -1.28509e-18)
(2.46155 1.4191 2.34993e-17)
(1.8694 1.35511 -2.22956e-17)
(1.21692 1.18848 1.62846e-18)
(0.720593 0.867821 3.80958e-18)
(9.99948 0.0492466 0)
(9.97309 0.091007 -5.86442e-20)
(9.92565 0.128627 5.96807e-20)
(9.85896 0.166242 -1.22431e-19)
(9.77414 0.205165 3.77183e-19)
(9.67204 0.245785 -2.56512e-19)
(9.55295 0.288555 3.9795e-19)
(9.41681 0.334052 -5.46203e-19)
(9.2635 0.382926 -1.45947e-19)
(9.09281 0.43584 1.38213e-19)
(8.90427 0.493414 4.45821e-19)
(8.69728 0.556225 1.54614e-19)
(8.47127 0.624853 0)
(8.22549 0.699893 -1.34126e-18)
(7.95908 0.781905 1.71994e-18)
(7.67118 0.871346 3.59166e-19)
(7.36084 0.968525 1.68838e-21)
(7.02719 1.07356 0)
(6.66924 1.18616 4.07958e-19)
(6.28584 1.30537 -4.29423e-19)
(5.87613 1.42954 4.50442e-19)
(5.43934 1.55601 -7.60067e-18)
(4.97475 1.68074 1.59096e-17)
(4.48181 1.79788 -1.04551e-17)
(3.95997 1.89909 1.11542e-18)
(3.40816 1.97263 0)
(2.82325 2.00259 -1.26259e-18)
(2.20202 1.96685 -1.36175e-18)
(1.49374 1.84582 -2.53548e-17)
(0.871375 1.60561 5.14412e-17)
(9.99875 0.0565077 -5.74697e-20)
(9.97099 0.107955 5.82906e-20)
(9.92349 0.155744 1.19402e-19)
(9.85804 0.20317 1.22796e-19)
(9.77501 0.252025 -4.98828e-19)
(9.67509 0.303052 -1.90623e-21)
(9.55868 0.356801 6.5734e-19)
(9.4258 0.413946 -6.72282e-19)
(9.27636 0.475273 2.77638e-19)
(9.11021 0.541569 -1.43251e-19)
(8.92702 0.61356 1.33573e-18)
(8.72638 0.691923 -1.3653e-18)
(8.50781 0.777354 0)
(8.27073 0.870585 0)
(8.01455 0.97231 -3.39069e-19)
(7.73865 1.08313 -7.02015e-19)
(7.44227 1.20348 3.66768e-18)
(7.12466 1.33365 -6.06998e-18)
(6.78509 1.47354 2.74248e-18)
(6.42245 1.62235 0)
(6.03552 1.77845 0)
(5.62288 1.93918 8.13432e-18)
(5.18265 2.10041 -7.49451e-18)
(4.71238 2.25609 9.93229e-19)
(4.20867 2.39755 1.67575e-17)
(3.66666 2.51291 -1.75752e-17)
(3.07891 2.58711 -1.76777e-17)
(2.4405 2.60088 2.1372e-17)
(1.70792 2.53957 0)
(1.00857 2.3629 3.11833e-18)
(9.99851 0.06443 0)
(9.97008 0.124893 0)
(9.92289 0.182372 -2.36927e-19)
(9.8589 0.239545 0)
(9.77802 0.298334 0)
(9.68078 0.359683 -5.09506e-19)
(9.56756 0.42422 2.58605e-19)
(9.43843 0.492721 0)
(9.29331 0.566109 1.36623e-19)
(9.13211 0.64528 0)
(8.9546 0.731056 0)
(8.76041 0.824226 -1.50664e-18)
(8.54909 0.925606 9.22307e-19)
(8.32018 1.03603 3.18957e-19)
(8.07324 1.15632 0)
(7.80773 1.2872 3.43226e-19)
(7.52302 1.42928 2.4999e-18)
(7.21833 1.58295 -2.92132e-18)
(6.89304 1.74834 0)
(6.54609 1.92496 -7.88881e-19)
(6.17592 2.11144 -6.63392e-18)
(5.78064 2.30541 1.28687e-17)
(5.35743 2.50301 7.2803e-18)
(4.90251 2.69861 -1.48881e-17)
(4.41063 2.88405 -1.57625e-17)
(3.87464 3.04785 1.64436e-17)
(3.28484 3.17547 0)
(2.63597 3.24799 0)
(1.89365 3.24771 0)
(1.14037 3.11881 -2.26974e-17)
(9.99856 0.0726198 0)
(9.96997 0.141734 0)
(9.92351 0.208412 4.72112e-19)
(9.86123 0.274985 0)
(9.78279 0.343353 -2.45772e-19)
(9.6887 0.414611 0)
(9.57924 0.489496 2.58245e-19)
(9.45443 0.568904 0)
(9.31431 0.653889 -2.71815e-19)
(9.15882 0.74544 1.12097e-18)
(8.98772 0.844471 -1.14058e-18)
(8.8007 0.951883 2.95619e-19)
(8.59735 1.06859 2.74957e-18)
(8.37728 1.19552 -2.80418e-18)
(8.14007 1.33359 -2.92213e-18)
(7.88518 1.48367 2.65059e-18)
(7.61202 1.64655 0)
(7.31979 1.82278 0)
(7.0077 2.0127 -5.92647e-18)
(6.67454 2.21619 1.29567e-17)
(6.3185 2.43238 -1.3413e-17)
(5.93724 2.65942 6.51055e-18)
(5.52713 2.89401 0)
(5.08346 3.13133 0)
(4.59984 3.36407 -9.15936e-19)
(4.06761 3.58131 -1.55181e-17)
(3.47572 3.76837 3.25515e-17)
(2.81766 3.90517 -1.72299e-17)
(2.06784 3.96768 0)
(1.27072 3.8801 0)
(9.99881 0.0808367 2.27103e-19)
(9.97047 0.158306 0)
(9.92508 0.23373 -4.69728e-19)
(9.86475 0.309317 -1.02608e-21)
(9.78904 0.386877 9.78812e-19)
(9.69856 0.467622 -2.48588e-19)
(9.59342 0.552446 0)
(9.47354 0.642337 2.61052e-19)
(9.33907 0.738448 -8.09911e-19)
(9.18999 0.841863 1.36884e-18)
(9.02609 0.953585 1.4162e-18)
(8.84709 1.07462 -1.15327e-18)
(8.65266 1.20596 0)
(8.44244 1.34865 -2.46504e-18)
(8.21596 1.50374 2.82311e-18)
(7.97269 1.67224 -6.46124e-19)
(7.71198 1.85512 0)
(7.43299 2.05317 0)
(7.13465 2.26702 0)
(6.81552 2.49697 0)
(6.47348 2.74275 7.59157e-19)
(6.10574 3.00323 -1.25366e-17)
(5.7079 3.27593 2.57796e-17)
(5.27451 3.55706 -1.32817e-17)
(4.79821 3.84042 -1.38969e-17)
(4.26904 4.1157 2.97502e-17)
(3.6747 4.36798 -3.02312e-17)
(3.00605 4.57568 1.64155e-17)
(2.24433 4.70783 0)
(1.40387 4.66828 -3.67904e-20)
(9.99921 0.0889161 -6.79276e-19)
(9.97142 0.174451 0)
(9.92733 0.258213 4.6811e-19)
(9.86925 0.342407 -2.37114e-19)
(9.79667 0.428719 -4.86492e-19)
(9.71017 0.518484 2.45704e-19)
(9.60981 0.61279 0)
(9.49541 0.712693 -1.29837e-18)
(9.36718 0.819406 7.89121e-19)
(9.22517 0.934102 8.17699e-19)
(9.06923 1.05787 -2.67515e-19)
(8.89915 1.1918 -3.70577e-18)
(8.71467 1.33701 4.96203e-18)
(8.5154 1.49466 -2.38307e-18)
(8.30086 1.66594 2.47251e-18)
(8.07049 1.85204 -1.87635e-18)
(7.8236 2.05412 0)
(7.55924 2.27327 0)
(7.27615 2.5105 0)
(6.97261 2.76661 0)
(6.64619 3.04202 0)
(6.29362 3.33653 1.19086e-17)
(5.9098 3.64871 -1.21339e-17)
(5.48845 3.97603 0)
(5.02112 4.31371 8.1677e-19)
(4.49634 4.65243 -1.4314e-17)
(3.90021 4.97731 1.39375e-17)
(3.21972 5.26542 -4.63787e-19)
(2.44157 5.47803 0)
(1.5496 5.50099 3.42556e-20)
(9.99975 0.0967397 1.45565e-21)
(9.97271 0.190051 2.28968e-19)
(9.93007 0.281745 -4.64695e-19)
(9.87463 0.374085 2.35867e-19)
(9.80559 0.468689 -9.64421e-19)
(9.72331 0.56699 2.44532e-19)
(9.62811 0.670269 0)
(9.51973 0.779655 -2.55137e-19)
(9.3983 0.896392 -1.04971e-18)
(9.26404 1.02172 1.06387e-18)
(9.11686 1.15679 2.19561e-18)
(8.9566 1.30282 -1.94466e-18)
(8.78303 1.46104 -2.58596e-18)
(8.59578 1.63276 1.74663e-18)
(8.39439 1.81931 0)
(8.17833 2.02205 0)
(7.94683 2.24239 5.0456e-18)
(7.69889 2.48178 6.89594e-19)
(7.43312 2.74165 -1.05097e-17)
(7.14759 3.02341 5.34938e-18)
(6.8396 3.32827 -1.17219e-17)
(6.50547 3.65715 -7.89267e-19)
(6.13951 4.01004 1.21633e-17)
(5.7345 4.38603 -1.2536e-17)
(5.28055 4.78214 -7.44497e-20)
(4.76434 5.1909 2.48397e-17)
(4.16941 5.59825 -1.32206e-17)
(3.47695 5.98021 -1.34503e-17)
(2.67678 6.28827 1.4206e-17)
(1.71833 6.38787 -1.59429e-17)
(10.0003 0.104223 4.50016e-19)
(9.97425 0.205009 0)
(9.93327 0.304205 0)
(9.88077 0.404185 0)
(9.81561 0.506625 9.42763e-22)
(9.73785 0.612972 2.43751e-19)
(9.64817 0.724651 0)
(9.54626 0.84292 1.25784e-21)
(9.43222 0.969043 -7.7854e-19)
(9.30637 1.10428 2.5364e-19)
(9.16867 1.24986 3.49608e-18)
(9.01903 1.40712 -2.18424e-18)
(8.85723 1.57742 0)
(8.683 1.7622 5.74066e-19)
(8.49595 1.96293 0)
(8.2956 2.18118 0)
(8.08118 2.41862 -4.88163e-18)
(7.85166 2.67709 4.92442e-18)
(7.60564 2.95851 6.26411e-19)
(7.34111 3.26494 6.37365e-19)
(7.05524 3.59852 6.5924e-19)
(6.74401 3.96146 6.70957e-19)
(6.40152 4.35562 -6.82681e-19)
(6.01957 4.78225 1.37351e-18)
(5.58664 5.24084 6.89776e-19)
(5.08706 5.72717 0)
(4.50031 6.22974 7.31734e-19)
(3.79801 6.72526 0)
(2.96558 7.15599 0)
(1.91835 7.35711 2.23186e-19)
(10.0009 0.11131 0)
(9.97598 0.219217 0)
(9.937 0.325479 0)
(9.88756 0.432583 2.07354e-21)
(9.82651 0.542366 -2.35387e-19)
(9.75369 0.656241 4.83541e-19)
(9.66987 0.77571 4.95407e-19)
(9.57479 0.90221 -1.74839e-18)
(9.46864 1.03702 7.5905e-19)
(9.35177 1.18139 -1.65915e-21)
(9.22419 1.33664 -2.64961e-18)
(9.08585 1.50419 2.50277e-19)
(8.93663 1.68555 2.18369e-18)
(8.77636 1.88224 2.24254e-18)
(8.60479 2.09589 1.90582e-20)
(8.4215 2.3283 -2.30313e-18)
(8.22579 2.58142 5.83989e-19)
(8.01677 2.85743 -8.29392e-21)
(7.79311 3.1588 -6.07471e-18)
(7.55289 3.48828 4.27706e-18)
(7.29339 3.84904 4.98488e-18)
(7.01049 4.24466 -5.01395e-18)
(6.6985 4.67932 6.26462e-19)
(6.3487 5.15709 -1.71773e-20)
(5.94821 5.68099 -6.54764e-19)
(5.47877 6.25215 3.19852e-19)
(4.91444 6.86521 -3.36938e-19)
(4.21277 7.50296 0)
(3.34198 8.10655 8.53833e-20)
(2.1744 8.48329 -5.77079e-21)
(10.0014 0.117959 -3.32713e-19)
(9.97786 0.232562 3.36595e-19)
(9.94122 0.345463 -2.26659e-19)
(9.89493 0.459195 6.94742e-19)
(9.83813 0.575764 -9.40231e-19)
(9.77068 0.6966 7.14658e-19)
(9.69301 0.823254 -9.74081e-19)
(9.60506 0.957301 -2.52398e-19)
(9.50723 1.10005 1.00088e-18)
(9.39983 1.25273 -2.56154e-19)
(9.28289 1.41673 2.60583e-19)
(9.15644 1.59357 -2.6504e-19)
(9.02054 1.78485 5.34128e-19)
(8.87513 1.99219 0)
(8.72006 2.21737 0)
(8.55502 2.46235 0)
(8.37956 2.72938 -5.72462e-19)
(8.193 3.02099 -8.54203e-21)
(7.99426 3.34011 -4.07767e-18)
(7.78174 3.69023 5.26223e-18)
(7.55312 4.07553 0)
(7.30454 4.50096 -9.49277e-18)
(7.03117 4.97328 8.90173e-18)
(6.7248 5.49993 -6.02762e-19)
(6.37222 6.08872 -9.45566e-18)
(5.95382 6.7488 9.18237e-18)
(5.43869 7.48686 0)
(4.76815 8.30348 9.11778e-18)
(3.87931 9.16003 -9.66352e-18)
(2.54691 9.8829 5.20219e-21)
(10.0019 0.124146 4.43652e-19)
(9.9798 0.244954 -4.48203e-19)
(9.94575 0.364054 1.95522e-21)
(9.90282 0.483938 -4.60532e-19)
(9.85044 0.606695 9.34548e-19)
(9.78862 0.733885 -7.09241e-19)
(9.71734 0.867118 9.63551e-19)
(9.63679 1.008 -7.2824e-19)
(9.54764 1.15788 -2.46834e-19)
(9.45011 1.31801 -1.25975e-18)
(9.34427 1.4898 1.27202e-18)
(9.23025 1.67486 0)
(9.10829 1.87484 -2.63609e-18)
(8.97845 2.09145 2.12249e-18)
(8.84072 2.32659 1.62666e-18)
(8.69499 2.58237 -2.17361e-18)
(8.54112 2.86125 -3.86768e-18)
(8.37876 3.16603 8.31734e-18)
(8.20724 3.5001 -8.93049e-18)
(8.02556 3.86755 -5.75803e-19)
(7.83213 4.27345 4.48438e-18)
(7.62391 4.72405 0)
(7.39767 5.22833 0)
(7.14724 5.7973 0)
(6.86159 6.44434 -8.62023e-18)
(6.52336 7.18873 1.48555e-19)
(6.10239 8.05571 8.38607e-18)
(5.53048 9.08174 2.61871e-19)
(4.71425 10.295 -7.84388e-18)
(3.16783 11.7393 -2.54319e-19)
(10.0024 0.129854 5.49683e-19)
(9.98179 0.256345 -3.32015e-19)
(9.95044 0.381153 2.26479e-19)
(9.91117 0.506694 0)
(9.86349 0.635055 9.2445e-19)
(9.80739 0.767979 -4.67723e-19)
(9.74268 0.907154 -9.53121e-19)
(9.66981 1.05413 9.61492e-19)
(9.58957 1.21028 2.45171e-19)
(9.50225 1.37693 -7.45132e-19)
(9.40789 1.55552 9.99052e-19)
(9.30672 1.74766 2.03934e-18)
(9.19914 1.95504 -4.11518e-18)
(9.08538 2.17945 4.16006e-18)
(8.96563 2.42286 -1.56672e-18)
(8.84006 2.68748 0)
(8.70886 2.97587 -8.01307e-19)
(8.57207 3.29105 4.28742e-18)
(8.4296 3.63668 -4.28652e-18)
(8.28126 4.01731 2.65179e-19)
(8.12649 4.43859 0)
(7.96389 4.90774 4.21601e-18)
(7.79254 5.43519 -4.44116e-18)
(7.60983 6.03452 3.92824e-18)
(7.41059 6.72396 4.01329e-20)
(7.18648 7.5318 -1.17905e-19)
(6.92258 8.5026 -3.7123e-18)
(6.57094 9.71944 0)
(6.08095 11.3432 -2.78506e-18)
(4.27898 14.5064 7.91196e-18)
(-0.00347695 -0.0170455 7.79918e-20)
(0.132706 -0.0745926 1.85844e-20)
(0.297241 -0.0847023 1.71046e-20)
(0.463425 -0.0735063 -1.62402e-20)
(0.608086 -0.0558727 -6.3512e-20)
(0.718867 -0.0376621 -1.07749e-21)
(0.793264 -0.0210089 1.38262e-19)
(0.833899 -0.00676302 -6.06395e-20)
(0.846069 0.00449565 0)
(0.835671 0.0119972 2.96792e-20)
(0.808097 0.0172391 -2.19865e-20)
(0.768136 0.0207478 0)
(0.719735 0.0224977 0)
(0.666642 0.0228151 -1.36099e-20)
(0.611973 0.0222785 1.34775e-20)
(0.557728 0.0211738 0)
(0.505568 0.0193063 0)
(0.457959 0.0164232 -3.03078e-21)
(0.418153 0.0125485 0)
(0.388973 0.00761325 0)
(0.372225 0.00229323 0)
(0.367303 -0.0019197 2.39152e-21)
(0.371522 -0.00457897 0)
(0.382322 -0.0064393 -9.68964e-22)
(0.398179 -0.00789288 0)
(0.41856 -0.00912571 0)
(0.443555 -0.010405 0)
(0.473792 -0.0119037 1.56557e-22)
(0.509524 -0.0132752 3.10854e-22)
(0.560685 -0.0138465 -1.4912e-22)
(0.0316787 -0.0990556 2.7155e-23)
(0.17676 -0.197822 -3.07108e-19)
(0.32586 -0.211132 5.22166e-19)
(0.476879 -0.185291 -2.4006e-19)
(0.611014 -0.146418 0)
(0.71841 -0.105741 1.25141e-19)
(0.796966 -0.0677379 -1.06793e-19)
(0.848537 -0.0343838 0)
(0.876685 -0.00702668 1.20986e-19)
(0.885544 0.014142 -1.04255e-19)
(0.877372 0.0302702 -7.27685e-21)
(0.856541 0.0418449 0)
(0.826772 0.0487024 1.39296e-20)
(0.791725 0.0517333 0)
(0.753885 0.0523815 0)
(0.714331 0.0512198 6.4177e-21)
(0.674244 0.0476696 0)
(0.636212 0.0411505 1.47165e-20)
(0.603644 0.0321859 -6.13908e-21)
(0.579108 0.0220788 -1.64989e-20)
(0.562008 0.0121633 0)
(0.550697 0.00383973 -7.10307e-21)
(0.544505 -0.00255907 1.93824e-21)
(0.54277 -0.00777948 -5.01387e-21)
(0.544807 -0.0124536 0)
(0.550369 -0.0168449 1.24236e-21)
(0.559404 -0.0214126 -1.22483e-21)
(0.572121 -0.0263562 -4.69351e-22)
(0.589277 -0.0310937 -7.6999e-22)
(0.620186 -0.0336084 -1.51998e-22)
(0.0416898 -0.228276 -6.8832e-19)
(0.178326 -0.323394 -3.54919e-20)
(0.300949 -0.327811 3.33356e-20)
(0.422055 -0.28609 0)
(0.52616 -0.228055 3.18429e-20)
(0.607614 -0.167672 0)
(0.665321 -0.111159 -3.12715e-20)
(0.70119 -0.0615023 0)
(0.718139 -0.0215412 0)
(0.720735 0.00995512 -1.52077e-20)
(0.710508 0.0352507 1.18581e-19)
(0.690517 0.0537394 -1.31292e-19)
(0.663368 0.0650846 -1.41372e-20)
(0.632287 0.0713388 0)
(0.598763 0.0749147 -5.3165e-20)
(0.562108 0.0761505 4.60364e-20)
(0.521825 0.0732915 0)
(0.479718 0.0646484 0)
(0.439153 0.0504997 5.79468e-21)
(0.403061 0.0339067 1.07522e-20)
(0.371137 0.0186624 -1.06799e-20)
(0.342199 0.00648831 1.41679e-20)
(0.316438 -0.00249915 -1.1487e-20)
(0.293693 -0.00840308 1.97246e-21)
(0.274069 -0.0124545 0)
(0.258056 -0.0161371 0)
(0.246335 -0.0199581 0)
(0.239847 -0.0252327 1.45079e-21)
(0.240774 -0.0321119 -6.39364e-22)
(0.258765 -0.0412122 -7.35305e-24)
(0.0113627 -0.359226 3.75579e-20)
(0.148186 -0.439263 5.22791e-20)
(0.239851 -0.420936 -3.31226e-20)
(0.32937 -0.35869 -3.25642e-20)
(0.40011 -0.282488 -3.21495e-20)
(0.451979 -0.205534 2.59866e-19)
(0.484684 -0.13394 -2.88799e-19)
(0.501408 -0.0706735 -2.57615e-19)
(0.50311 -0.0192979 5.10102e-19)
(0.492213 0.0222678 -2.51804e-19)
(0.47385 0.0557962 3.07172e-20)
(0.446877 0.0778337 4.48512e-20)
(0.412479 0.0884519 -1.15723e-19)
(0.373779 0.093055 2.26844e-19)
(0.331231 0.0972428 -1.25061e-19)
(0.282213 0.101019 0)
(0.223155 0.101539 6.43281e-20)
(0.153473 0.0962549 -5.08402e-20)
(0.0754612 0.0847873 0)
(-0.00760765 0.0694116 5.74016e-21)
(-0.0857799 0.053977 0)
(-0.149709 0.0410202 -1.50357e-20)
(-0.200676 0.0300045 9.64112e-21)
(-0.237888 0.019375 4.21486e-21)
(-0.257799 0.00835418 0)
(-0.264135 -0.00326984 0)
(-0.256386 -0.0157653 -2.02704e-21)
(-0.236492 -0.0300607 2.92208e-22)
(-0.213068 -0.0466437 0)
(-0.173314 -0.0635226 3.23029e-22)
(-0.0343217 -0.466715 -6.26899e-19)
(0.0943626 -0.532305 1.0703e-18)
(0.14539 -0.485015 -1.06886e-18)
(0.198882 -0.401538 5.24522e-19)
(0.230862 -0.310541 0)
(0.24922 -0.221953 5.35883e-19)
(0.252157 -0.139676 -4.97963e-19)
(0.248116 -0.0641777 0)
(0.235905 -0.0163001 0)
(0.202843 0.0216699 0)
(0.165068 0.0626694 -2.8494e-19)
(0.110108 0.0973557 2.49398e-19)
(0.0388084 0.119203 -1.20362e-19)
(-0.0402916 0.131345 2.36725e-19)
(-0.120489 0.141886 -7.29751e-20)
(-0.18973 0.153378 -5.55881e-20)
(-0.262939 0.1594 5.45628e-20)
(-0.337994 0.155896 5.06451e-20)
(-0.410097 0.143087 -2.55883e-20)
(-0.474642 0.122862 -1.18444e-20)
(-0.527219 0.0979766 0)
(-0.565289 0.0718372 4.99571e-21)
(-0.588611 0.0468888 1.33775e-20)
(-0.601602 0.0236557 -4.99032e-21)
(-0.604994 0.00286608 -7.65866e-21)
(-0.600907 -0.0153954 6.07463e-21)
(-0.591643 -0.0316467 0)
(-0.580072 -0.046254 1.65215e-21)
(-0.569708 -0.0602005 3.34803e-22)
(-0.562586 -0.070835 3.57687e-22)
(-0.0832037 -0.545146 5.76115e-19)
(0.021212 -0.591706 -5.09275e-19)
(0.0205901 -0.510164 0)
(0.0310752 -0.406764 3.37518e-20)
(0.0156862 -0.304224 -5.50295e-19)
(-0.00620927 -0.209338 -8.46435e-21)
(-0.0432537 -0.130274 5.19454e-19)
(-0.0790944 -0.0574691 -2.80036e-19)
(-0.134468 0.0221475 4.97967e-22)
(-0.280621 0.0883156 2.67406e-19)
(-0.336464 0.132724 2.57422e-19)
(-0.383235 0.162126 -5.29785e-19)
(-0.448219 0.179025 2.72087e-19)
(-0.514283 0.18734 8.65724e-20)
(-0.578746 0.193911 -2.81014e-19)
(-0.635393 0.200303 8.19195e-20)
(-0.689829 0.200953 -2.61365e-20)
(-0.739723 0.192081 -4.95184e-20)
(-0.783634 0.173016 4.86546e-20)
(-0.82086 0.145894 -1.13073e-20)
(-0.851269 0.114681 -2.10675e-20)
(-0.87504 0.083515 1.15537e-20)
(-0.892352 0.0548466 9.78975e-21)
(-0.902932 0.0288893 -7.83482e-21)
(-0.907793 0.00533102 3.32442e-22)
(-0.908002 -0.0154219 -5.92275e-21)
(-0.905337 -0.0331301 0)
(-0.902189 -0.0484081 0)
(-0.900686 -0.0623902 -3.4051e-22)
(-0.900803 -0.0741627 -3.42817e-22)
(-0.133325 -0.585563 -5.63425e-19)
(-0.070729 -0.603848 -1.69093e-20)
(-0.132295 -0.479713 5.43968e-19)
(-0.177166 -0.355504 -5.39106e-19)
(-0.251821 -0.24102 0)
(-0.335523 -0.13643 -3.40858e-20)
(-0.445756 -0.0420875 -5.16139e-19)
(-0.573729 0.0487778 1.07546e-18)
(-0.630141 0.111906 -5.22293e-19)
(-0.687911 0.143761 2.21896e-19)
(-0.742896 0.168618 -2.47066e-19)
(-0.791859 0.194551 2.38205e-19)
(-0.842543 0.213437 -2.61489e-19)
(-0.892936 0.223623 2.80572e-20)
(-0.941523 0.229328 -2.15973e-22)
(-0.985422 0.23175 2.63709e-20)
(-1.02453 0.227801 1.27492e-20)
(-1.05836 0.214518 4.91924e-20)
(-1.08779 0.191692 -4.84255e-20)
(-1.11385 0.161693 1.16912e-20)
(-1.13704 0.128171 0)
(-1.15689 0.0943887 9.72577e-21)
(-1.17217 0.0621709 -1.02791e-20)
(-1.1819 0.0324523 1.66493e-20)
(-1.18668 0.00606484 -6.38936e-22)
(-1.18758 -0.0163938 -6.30724e-21)
(-1.18654 -0.0346711 2.09939e-21)
(-1.18595 -0.0495308 -3.46606e-21)
(-1.18712 -0.0627968 3.52166e-21)
(-1.18857 -0.0742214 0)
(-0.186971 -0.577355 8.47858e-21)
(-0.183864 -0.543313 7.89188e-21)
(-0.310734 -0.377285 0)
(-0.424588 -0.2435 0)
(-0.560295 -0.125641 5.37093e-19)
(-0.699538 -0.0230448 -5.24816e-19)
(-0.818154 0.0540388 4.9533e-19)
(-0.89047 0.10381 -5.42548e-19)
(-0.953277 0.146375 -2.81818e-19)
(-1.00959 0.180211 5.18646e-19)
(-1.06091 0.205647 -2.37831e-19)
(-1.10661 0.227428 -2.59714e-19)
(-1.14934 0.243323 1.97436e-19)
(-1.19042 0.252448 -2.75096e-20)
(-1.22969 0.256581 2.67099e-20)
(-1.26568 0.255878 0)
(-1.2976 0.248268 -2.58464e-20)
(-1.32554 0.231867 0)
(-1.35044 0.206869 0)
(-1.37309 0.175366 -2.33232e-20)
(-1.39366 0.140305 0)
(-1.41138 0.104306 0)
(-1.4247 0.0691737 1.84776e-20)
(-1.43285 0.036334 -1.7809e-20)
(-1.43607 0.00721144 0)
(-1.43564 -0.017034 6.18718e-21)
(-1.43394 -0.0357292 -5.13896e-21)
(-1.43369 -0.0497819 3.69598e-21)
(-1.43557 -0.061745 -2.104e-21)
(-1.43717 -0.0720531 -1.63394e-21)
(-0.240759 -0.508481 0)
(-0.310216 -0.409347 -3.54821e-22)
(-0.493848 -0.232538 1.55751e-20)
(-0.663452 -0.0955099 -3.17258e-20)
(-0.835102 0.0184704 3.18e-20)
(-0.961096 0.0855941 3.22391e-20)
(-1.05749 0.128852 3.17002e-20)
(-1.1387 0.164535 6.17433e-20)
(-1.20611 0.195304 3.02534e-19)
(-1.26334 0.220832 -5.01352e-19)
(-1.31304 0.241532 2.30395e-19)
(-1.35631 0.258458 2.53473e-19)
(-1.39517 0.270693 -1.65112e-19)
(-1.43161 0.277806 -8.11538e-20)
(-1.46636 0.280152 1.85409e-19)
(-1.49894 0.277019 -1.0412e-19)
(-1.52871 0.266636 -5.17592e-20)
(-1.55554 0.247773 -2.52631e-20)
(-1.57971 0.220884 -1.1909e-20)
(-1.60158 0.18787 5.971e-20)
(-1.62113 0.151109 1.17378e-20)
(-1.63757 0.112729 0)
(-1.64929 0.0746291 0)
(-1.65559 0.0387167 -1.81201e-20)
(-1.65667 0.00693518 1.54362e-20)
(-1.65399 -0.0188257 -1.23462e-21)
(-1.65052 -0.0374879 -7.83296e-22)
(-1.64935 -0.0501512 2.07206e-22)
(-1.65084 -0.0601763 3.76918e-22)
(-1.65203 -0.0689408 1.21663e-21)
(-0.296784 -0.372606 0)
(-0.440702 -0.218231 -5.01983e-19)
(-0.686297 -0.0264784 9.68364e-19)
(-0.88652 0.0951555 -4.23072e-19)
(-1.03302 0.148485 -4.73223e-22)
(-1.15722 0.182707 -4.95462e-19)
(-1.26028 0.207579 4.8011e-19)
(-1.34522 0.228035 1.8006e-19)
(-1.41435 0.246237 -2.77989e-20)
(-1.47138 0.262247 2.99202e-20)
(-1.51959 0.276126 -4.21232e-19)
(-1.5609 0.287724 2.19713e-19)
(-1.59746 0.296317 -1.08531e-19)
(-1.63147 0.301371 1.06161e-19)
(-1.66426 0.302253 1.58446e-19)
(-1.69602 0.297449 -2.08485e-19)
(-1.72618 0.285053 1.54565e-19)
(-1.75409 0.264088 -5.19511e-20)
(-1.77936 0.235265 6.26487e-20)
(-1.80193 0.20048 4.85786e-20)
(-1.82158 0.161738 -3.6284e-20)
(-1.8374 0.120744 -3.46049e-20)
(-1.84805 0.0793626 0)
(-1.85251 0.0399221 9.18876e-21)
(-1.85088 0.00516843 -7.11491e-21)
(-1.84505 -0.0221555 7.50756e-21)
(-1.83866 -0.0404918 -5.58931e-21)
(-1.83535 -0.0511872 -3.79511e-21)
(-1.83546 -0.0586146 -4.82889e-21)
(-1.83575 -0.0654751 1.82257e-21)
(-0.365927 -0.179386 4.85483e-19)
(-0.591027 0.0658016 -4.83433e-19)
(-0.845392 0.206204 9.62061e-19)
(-1.03893 0.254683 -4.94504e-19)
(-1.20082 0.276587 -5.14084e-19)
(-1.33325 0.285534 9.49477e-19)
(-1.43969 0.289044 -4.66626e-19)
(-1.52445 0.291924 -2.04029e-19)
(-1.59185 0.296448 2.6723e-20)
(-1.64651 0.302631 4.75033e-19)
(-1.69217 0.309415 -2.46373e-19)
(-1.73104 0.315701 -2.16669e-19)
(-1.7653 0.320774 1.85214e-19)
(-1.79741 0.32402 0)
(-1.82933 0.324057 -1.31943e-19)
(-1.86174 0.318449 1.03804e-19)
(-1.8939 0.304715 7.54484e-22)
(-1.92433 0.281827 -2.67852e-20)
(-1.95187 0.250784 7.82789e-20)
(-1.97607 0.213703 1.31427e-20)
(-1.99664 0.172463 1.28107e-20)
(-2.01256 0.128426 -1.15165e-20)
(-2.02249 0.0832547 3.41884e-20)
(-2.02513 0.0396885 0)
(-2.02034 0.00144851 -3.87528e-22)
(-2.01034 -0.0276498 -1.4423e-20)
(-1.99976 -0.0454311 1.87407e-20)
(-1.99309 -0.0535143 6.49541e-21)
(-1.99082 -0.0575369 3.56767e-21)
(-1.98963 -0.061965 -4.21145e-21)
(-0.432916 0.179583 4.74898e-19)
(-0.684242 0.368947 -4.53696e-19)
(-0.970194 0.429926 4.5574e-19)
(-1.19141 0.431463 -9.26938e-19)
(-1.36573 0.412594 4.29554e-19)
(-1.5008 0.390039 4.70699e-19)
(-1.60491 0.369093 -4.87161e-19)
(-1.68455 0.352863 2.56338e-19)
(-1.74602 0.343494 -4.73846e-19)
(-1.79532 0.340308 1.90624e-19)
(-1.8366 0.340536 -2.67047e-20)
(-1.87189 0.34194 2.63395e-20)
(-1.90304 0.343869 2.61333e-20)
(-1.93294 0.345955 0)
(-1.96444 0.346227 0)
(-1.99868 0.340994 0)
(-2.03438 0.326656 8.31365e-22)
(-2.06881 0.301843 -5.41735e-20)
(-2.09966 0.268041 2.7122e-20)
(-2.1261 0.228054 -1.29858e-20)
(-2.14811 0.183864 8.76516e-22)
(-2.16488 0.136283 0)
(-2.17459 0.0865709 -2.35199e-20)
(-2.17535 0.037925 0)
(-2.16676 -0.00468245 8.5176e-21)
(-2.15137 -0.0360495 -1.50776e-21)
(-2.13495 -0.0531659 -1.83667e-20)
(-2.12328 -0.0579052 -1.72152e-21)
(-2.11736 -0.0574578 1.69939e-21)
(-2.11409 -0.0586513 3.92315e-21)
(-0.451932 0.565935 -4.46845e-19)
(-0.772766 0.709099 1.37527e-20)
(-1.11991 0.691378 -3.01203e-20)
(-1.36593 0.619697 -4.73128e-19)
(-1.54094 0.547499 7.40508e-19)
(-1.6679 0.489952 -2.30052e-19)
(-1.76183 0.443203 2.84937e-20)
(-1.83002 0.406796 -2.37841e-19)
(-1.88017 0.383841 2.18748e-19)
(-1.92045 0.372789 -2.14788e-19)
(-1.95542 0.367914 2.36297e-19)
(-1.9859 0.365282 -1.30851e-19)
(-2.01279 0.364705 7.65665e-20)
(-2.03964 0.3668 -1.05271e-19)
(-2.07079 0.369136 2.25278e-20)
(-2.10804 0.366083 1.04613e-19)
(-2.14911 0.352101 5.63606e-20)
(-2.1892 0.325134 1.7333e-21)
(-2.22434 0.287602 -5.54756e-20)
(-2.2535 0.243849 0)
(-2.27744 0.196282 -1.34033e-20)
(-2.29573 0.144685 -2.60615e-20)
(-2.30582 0.0894792 2.69471e-20)
(-2.30465 0.0344142 2.38734e-20)
(-2.29136 -0.0138508 0)
(-2.269 -0.0482774 -7.25265e-21)
(-2.24469 -0.0647594 1.74065e-20)
(-2.22588 -0.0653153 8.79176e-22)
(-2.21477 -0.0589478 7.20877e-21)
(-2.20877 -0.0557442 6.56953e-23)
(-0.469909 0.997235 0)
(-0.906338 1.12879 3.30026e-20)
(-1.33505 0.987903 2.72966e-19)
(-1.58735 0.809811 -2.39208e-19)
(-1.73681 0.668282 -1.45697e-20)
(-1.83823 0.576241 -2.33467e-19)
(-1.91345 0.503803 4.41562e-19)
(-1.96326 0.445917 -2.2274e-19)
(-1.99517 0.411243 0)
(-2.02199 0.397163 0)
(-2.04907 0.391181 0)
(-2.07396 0.386178 1.02849e-19)
(-2.09522 0.383569 2.51567e-21)
(-2.11754 0.386871 -2.05687e-19)
(-2.14816 0.393649 7.63614e-20)
(-2.19006 0.395108 2.72316e-20)
(-2.23919 0.382527 2.97808e-20)
(-2.28732 0.352761 -7.10773e-20)
(-2.32787 0.309907 0)
(-2.3599 0.261211 0)
(-2.38607 0.210049 -2.93537e-20)
(-2.40678 0.154203 1.40279e-20)
(-2.41805 0.0923294 1.29592e-20)
(-2.41507 0.0289057 -2.57423e-20)
(-2.39593 -0.0268789 0)
(-2.3646 -0.065559 -7.67346e-21)
(-2.32967 -0.0816869 8.33534e-21)
(-2.30085 -0.0771412 0)
(-2.28252 -0.0628357 -5.40863e-21)
(-2.27295 -0.0534864 -4.18326e-21)
(-0.51975 1.52061 0)
(-1.11765 1.92767 -3.01854e-19)
(-1.66674 1.42373 5.37033e-19)
(-1.8867 0.996304 -2.72996e-19)
(-1.9631 0.722174 -2.36398e-19)
(-2.01126 0.621531 4.84709e-19)
(-2.06098 0.543388 -4.45048e-19)
(-2.08436 0.471002 3.18369e-19)
(-2.08725 0.428353 -1.06864e-19)
(-2.09515 0.417257 0)
(-2.11508 0.412212 1.0128e-19)
(-2.13589 0.402408 -1.99811e-19)
(-2.1506 0.395131 9.86193e-20)
(-2.16602 0.400735 1.03942e-19)
(-2.19534 0.416779 -1.01558e-19)
(-2.2441 0.4279 -2.70414e-20)
(-2.30521 0.419587 0)
(-2.36481 0.386584 1.46685e-20)
(-2.41209 0.33575 0)
(-2.4465 0.280039 -3.20269e-20)
(-2.47465 0.225343 3.16849e-20)
(-2.49897 0.165522 1.49345e-20)
(-2.51298 0.0955134 0)
(-2.50825 0.0209436 -4.04322e-20)
(-2.48182 -0.0450202 1.22215e-20)
(-2.43886 -0.0895691 1.90534e-20)
(-2.39001 -0.105778 -1.05766e-20)
(-2.34782 -0.0950506 5.88095e-21)
(-2.31993 -0.0699663 9.50347e-22)
(-2.30589 -0.051728 2.11197e-21)
(10.003 0.135163 -3.1741e-19)
(9.98384 0.266893 7.45723e-19)
(9.95529 0.396962 0)
(9.92004 0.527731 -4.37548e-19)
(9.87743 0.661269 -1.96307e-21)
(9.82719 0.799454 8.98418e-19)
(9.7694 0.944024 -4.48564e-19)
(9.70469 1.09646 -9.17993e-19)
(9.63386 1.25815 9.343e-19)
(9.55728 1.4305 -9.41236e-19)
(9.47499 1.615 1.91227e-18)
(9.3874 1.8132 -1.92595e-18)
(9.29505 2.0268 2.1973e-18)
(9.19835 2.25761 -1.9635e-18)
(9.09773 2.50763 0)
(8.9937 2.7791 0)
(8.88677 3.07462 3.96108e-21)
(8.77746 3.39728 4.01092e-18)
(8.6664 3.75082 -4.25194e-18)
(8.55435 4.13991 3.9718e-18)
(8.442 4.57037 -3.9556e-18)
(8.33038 5.04981 1.19894e-19)
(8.22138 5.5888 -3.53723e-18)
(8.11722 6.2014 1.36029e-19)
(8.02189 6.90726 3.50698e-18)
(7.94366 7.73659 0)
(7.90475 8.7375 2.95488e-18)
(7.95545 9.99564 -2.82569e-18)
(8.63829 11.6009 0)
(9.23159 14.6571 0)
(10.0035 0.140087 -4.08785e-19)
(9.98602 0.276616 -4.14679e-19)
(9.96041 0.411458 0)
(9.9294 0.546977 0)
(9.89205 0.68524 0)
(9.84794 0.828163 0)
(9.79744 0.977476 -8.77645e-19)
(9.74127 1.13463 6.65932e-19)
(9.68017 1.30104 -1.12556e-18)
(9.61456 1.47818 9.07638e-19)
(9.54468 1.66752 -2.30805e-19)
(9.4711 1.87059 0)
(9.39446 2.08901 -2.62391e-21)
(9.31536 2.32459 -2.34008e-19)
(9.2345 2.57928 0)
(9.15269 2.85529 1.90139e-18)
(9.07083 3.15515 -1.66165e-18)
(8.98997 3.48183 2.35242e-19)
(8.91143 3.83894 4.72546e-19)
(8.83695 4.2309 3.26591e-18)
(8.76862 4.6631 -1.45297e-19)
(8.7097 5.1426 -3.75649e-18)
(8.66495 5.67868 3.48668e-18)
(8.64129 6.28318 -6.71992e-18)
(8.65095 6.97174 3.25044e-18)
(8.7156 7.76521 0)
(8.87964 8.6894 1.27053e-18)
(9.17191 9.77488 -9.382e-19)
(9.89999 10.9686 -1.1586e-20)
(10.6395 12.2222 3.28206e-19)
(10.0042 0.144527 3.98915e-19)
(9.98834 0.285347 -4.00369e-19)
(9.96576 0.424425 -4.04937e-19)
(9.93909 0.564166 -4.09568e-19)
(9.90717 0.706639 4.14226e-19)
(9.86953 0.853724 0)
(9.82666 1.00711 1.70165e-18)
(9.7793 1.16825 -6.4221e-19)
(9.72817 1.33857 2.17966e-19)
(9.67378 1.51957 2.18213e-19)
(9.61659 1.71267 -2.20059e-19)
(9.55732 1.91933 0)
(9.49669 2.14111 -1.79937e-18)
(9.43551 2.37975 -5.6748e-22)
(9.37471 2.63709 -2.02042e-21)
(9.3154 2.9152 2.03548e-18)
(9.25887 3.21645 -2.24158e-19)