/*--------------------------------*- C++ -*----------------------------------*\
| =========                 |                                                 |
| \\      /  F ield         | OpenFOAM: The Open Source CFD Toolbox           |
|  \\    /   O peration     | Version:  4.1                                   |
|   \\  /    A nd           | Web:      www.OpenFOAM.org                      |
|    \\/     M anipulation  |                                                 |
\*---------------------------------------------------------------------------*/
FoamFile
{
    version     2.0;
    format      ascii;
    class       volVectorField;
    location    "2.9";
    object      Force;
}
// * * * * * * * * * * * * * * * * * * * * * * * * * * * * * * * * * * * * * //

dimensions      [1 1 -2 0 0 0 0];

internalField   uniform (0 0 0);

boundaryField
{
    inlet
    {
        type            calculated;
        value           uniform (0 0 0);
    }
    outlet
    {
        type            calculated;
        value           uniform (0 0 0);
    }
    flap
    {
        type            calculated;
        value           nonuniform List<vector> 
33
(
(3.7655 1.91356e-18 -0.239844)
(3.70348 1.82549e-18 -0.497411)
(3.62897 -1.8006e-18 -0.713152)
(3.54673 -2.08627e-21 -0.858002)
(3.46128 7.78958e-18 -0.950748)
(3.37366 1.65161e-21 -1.00055)
(3.28635 1.65928e-18 -1.01377)
(3.20274 7.43016e-18 -0.998196)
(3.11854 5.93838e-22 -0.963061)
(3.02552 -2.71733e-22 -0.915672)
(2.91381 1.61004e-18 -0.858501)
(2.77009 -4.00622e-22 -0.790914)
(2.5716 1.55984e-18 -0.711131)
(2.2682 3.02901e-18 -0.610827)
(1.74488 1.42013e-18 -0.466056)
(0.196 2.77139e-18 0.709971)
(0.120457 1.63411e-18 0.449188)
(0.0408821 7.66148e-19 0.153895)
(-0.0447581 -1.3483e-18 0.00289709)
(-0.0450388 1.4008e-18 0.00608239)
(-0.0453607 1.45322e-18 0.00892372)
(-0.0458837 1.49883e-18 0.0110488)
(-0.0465355 1.33462e-19 0.0126761)
(-0.0473341 -1.70567e-18 0.0138725)
(-0.0484008 1.60015e-18 0.0147067)
(-0.050124 -5.87747e-39 0.0153648)
(-0.0527122 1.48284e-19 0.0160246)
(-0.0558539 1.64699e-18 0.0167044)
(-0.0587677 1.65559e-18 0.0172385)
(-0.0611718 1.66368e-18 0.0176383)
(-0.0615752 1.67993e-18 0.0174431)
(-0.0575551 -1.73167e-18 0.0162744)
(-0.0446394 1.22778e-19 0.0123941)
)
;
    }
    upperWall
    {
        type            calculated;
        value           uniform (0 0 0);
    }
    lowerWall
    {
        type            calculated;
        value           uniform (0 0 0);
    }
    frontAndBack
    {
        type            empty;
    }
}


// ************************************************************************* //
