/*--------------------------------*- C++ -*----------------------------------*\
| =========                 |                                                 |
| \\      /  F ield         | OpenFOAM: The Open Source CFD Toolbox           |
|  \\    /   O peration     | Version:  4.1                                   |
|   \\  /    A nd           | Web:      www.OpenFOAM.org                      |
|    \\/     M anipulation  |                                                 |
\*---------------------------------------------------------------------------*/
FoamFile
{
    version     2.0;
    format      ascii;
    class       volScalarField;
    location    "2.9";
    object      p;
}
// * * * * * * * * * * * * * * * * * * * * * * * * * * * * * * * * * * * * * //

dimensions      [0 2 -2 0 0 0 0];

internalField   nonuniform List<scalar> 
2790
(
133.707
133.824
134.294
134.994
135.845
136.836
137.969
139.239
140.642
142.174
143.831
145.61
147.508
149.517
151.629
153.831
156.11
158.447
160.817
163.192
165.536
167.809
169.964
171.949
173.712
175.204
176.385
177.229
177.74
177.943
133.522
133.747
134.24
134.935
135.782
136.771
137.9
139.166
140.562
142.087
143.735
145.506
147.394
149.393
151.494
153.686
155.956
158.283
160.647
163.019
165.365
167.646
169.816
171.824
173.619
175.152
176.38
177.281
177.863
178.343
133.344
133.641
134.152
134.836
135.672
136.65
137.767
139.017
140.395
141.899
143.524
145.268
147.126
149.093
151.158
153.311
155.539
157.824
160.145
162.476
164.785
167.038
169.191
171.201
173.021
174.612
175.942
177.007
177.827
178.6
133.145
133.479
134.003
134.678
135.501
136.466
137.566
138.796
140.15
141.626
143.218
144.925
146.742
148.663
150.677
152.774
154.941
157.162
159.416
161.679
163.924
166.119
168.229
170.214
172.04
173.674
175.098
176.306
177.271
178.08
132.919
133.272
133.806
134.475
135.283
136.231
137.309
138.512
139.836
141.275
142.826
144.487
146.251
148.112
150.061
152.087
154.177
156.315
158.482
160.657
162.815
164.928
166.969
168.905
170.707
172.349
173.809
175.067
176.034
176.68
132.66
133.024
133.563
134.224
135.015
135.942
136.993
138.164
139.45
140.846
142.347
143.952
145.654
147.445
149.317
151.259
153.257
155.296
157.36
159.427
161.477
163.485
165.429
167.283
169.02
170.614
172.038
173.247
174.127
174.52
132.368
132.737
133.276
133.927
134.7
135.601
136.621
137.754
138.997
140.342
141.787
143.328
144.957
146.668
148.451
150.296
152.189
154.115
156.057
157.998
159.919
161.797
163.614
165.346
166.97
168.457
169.773
170.858
171.608
171.735
132.041
132.412
132.948
133.587
134.34
135.211
136.195
137.286
138.479
139.767
141.148
142.617
144.166
145.786
147.469
149.205
150.979
152.776
154.58
156.375
158.143
159.864
161.518
163.085
164.542
165.86
166.999
167.896
168.491
168.376
131.681
132.05
132.581
133.207
133.935
134.773
135.717
136.761
137.899
139.126
140.436
141.825
143.284
144.805
146.378
147.991
149.633
151.286
152.933
154.56
156.15
157.681
159.132
160.484
161.713
162.791
163.681
164.318
164.717
164.381
131.287
131.653
132.177
132.787
133.489
134.291
135.19
136.183
137.262
138.421
139.654
140.957
142.319
143.731
145.183
146.663
148.159
149.652
151.123
152.559
153.941
155.245
156.447
157.525
158.454
159.204
159.746
160.024
160.142
159.563
130.861
131.223
131.739
132.331
133.003
133.765
134.617
135.555
136.571
137.658
138.809
140.018
141.275
142.571
143.894
145.23
146.566
147.881
149.159
150.381
151.524
152.559
153.458
154.193
154.732
155.038
155.09
154.845
154.516
153.578
130.404
130.763
131.268
131.839
132.48
133.2
134.002
134.882
135.831
136.841
137.905
139.015
140.161
141.334
142.518
143.7
144.863
145.986
147.052
148.037
148.908
149.63
150.168
150.482
150.519
150.227
149.58
148.536
147.428
145.809
129.917
130.274
130.767
131.315
131.921
132.597
133.349
134.168
135.047
135.975
136.947
137.953
138.984
140.027
141.066
142.085
143.063
143.982
144.82
145.544
146.111
146.479
146.598
146.404
145.811
144.726
143.078
140.772
138.219
135.047
129.404
129.759
130.239
130.761
131.329
131.961
132.66
133.417
134.222
135.066
135.942
136.841
137.752
138.659
139.546
140.394
141.181
141.886
142.481
142.925
143.162
143.14
142.789
142.007
140.655
138.556
135.513
131.218
125.897
118.737
128.866
129.218
129.685
130.179
130.709
131.295
131.94
132.632
133.36
134.119
134.897
135.686
136.473
137.241
137.971
138.643
139.234
139.719
140.062
140.211
140.103
139.669
138.814
137.391
135.186
131.896
127.069
119.854
109.421
91.1038
2.51911
2.55754
2.56551
2.53445
2.46568
2.37561
2.281
2.19211
2.11194
2.03826
1.96824
1.9003
1.83122
1.75924
1.6856
1.61182
1.53684
1.45712
1.37325
1.29011
1.20895
1.12558
1.03522
0.935078
0.826952
0.711737
0.586379
0.447156
0.290981
0.116512
2.51286
2.55342
2.55554
2.51846
2.44735
2.35827
2.26636
2.18074
2.10351
2.03195
1.96438
1.89849
1.83035
1.75781
1.68375
1.61091
1.53754
1.4575
1.37185
1.28874
1.20937
1.12699
1.03628
0.93615
0.82923
0.715633
0.590543
0.450002
0.291192
0.112694
2.52056
2.55868
2.54919
2.50174
2.42575
2.33682
2.248
2.16674
2.09365
2.02452
1.95931
1.89741
1.83104
1.75676
1.68127
1.6102
1.5383
1.45471
1.36462
1.28312
1.20999
1.13558
1.04822
0.942366
0.827352
0.709996
0.583615
0.442105
0.283121
0.104808
2.54873
2.57564
2.54848
2.48836
2.40668
2.31789
2.23256
2.15584
2.08765
2.02255
1.95821
1.89833
1.8305
1.7526
1.67664
1.6122
1.5504
1.46064
1.35914
1.27326
1.19812
1.12121
1.0322
0.927515
0.813446
0.69496
0.566834
0.425061
0.267317
0.0931038
2.58818
2.60106
2.5544
2.483
2.39667
2.30833
2.22645
2.15331
2.0815
2.01688
1.96326
1.92021
1.85265
1.75979
1.67552
1.60824
1.54287
1.45572
1.35525
1.26348
1.1803
1.09645
1.00316
0.897208
0.782302
0.66239
0.534757
0.394806
0.241587
0.0801398
2.62977
2.6318
2.57062
2.49305
2.40484
2.31684
2.23618
2.17395
2.12162
2.04878
1.97774
1.92522
1.86499
1.78052
1.69404
1.61701
1.53984
1.44765
1.34498
1.24571
1.15224
1.05885
0.959082
0.850056
0.733886
0.613986
0.488315
0.352183
0.20723
0.0660874
2.67548
2.67552
2.61049
2.5313
2.44472
2.35999
2.28277
2.20974
2.14242
2.07855
2.01423
1.95484
1.88826
1.80545
1.71683
1.62996
1.53949
1.43747
1.32725
1.21782
1.11209
1.00715
0.89905
0.785675
0.668208
0.549204
0.427153
0.297548
0.165206
0.0504721
2.75074
2.74926
2.6836
2.6016
2.51185
2.42169
2.33325
2.25603
2.18576
2.11849
2.05416
1.99091
1.91961
1.83475
1.74143
1.64404
1.53969
1.42469
1.30226
1.17908
1.05857
0.940154
0.822168
0.703633
0.585298
0.468215
0.351431
0.231358
0.116139
0.0329737
2.87391
2.85692
2.77806
2.68348
2.57783
2.47563
2.38307
2.30175
2.22918
2.16094
2.09591
2.0303
1.95619
1.86861
1.76897
1.65985
1.5402
1.409
1.26986
1.12887
0.990462
0.856305
0.726801
0.602324
0.483624
0.370681
0.261398
0.15344
0.0597703
0.0132681
3.02885
2.97552
2.87747
2.75253
2.63046
2.51852
2.42114
2.33854
2.26686
2.20111
2.13816
2.07272
1.99738
1.90706
1.80031
1.67815
1.54112
1.39017
1.22976
1.06657
0.906571
0.753821
0.610936
0.479885
0.361894
0.255752
0.156499
0.0631846
-0.00457264
-0.00902184
3.16472
3.07627
2.93792
2.79019
2.65289
2.53502
2.43812
2.35984
2.29471
2.23644
2.17965
2.1179
2.04359
1.95105
1.83682
1.70027
1.54309
1.36822
1.1815
0.991123
0.805245
0.630592
0.472273
0.334094
0.217955
0.121299
0.0364154
-0.0389122
-0.0774281
-0.034042
3.26912
3.12366
2.93904
2.76583
2.62389
2.5125
2.42606
2.36021
2.30934
2.26561
2.22071
2.16698
2.09648
2.00259
1.88047
1.728
1.54732
1.34353
1.12465
0.901282
0.684424
0.483913
0.307708
0.16175
0.0488733
-0.034723
-0.10059
-0.15346
-0.158946
-0.0618259
3.28264
3.04817
2.8208
2.64314
2.52337
2.44157
2.38051
2.3371
2.30926
2.28857
2.26307
2.22269
2.15921
2.06515
1.93441
1.76377
1.55545
1.31671
1.05877
0.795543
0.541634
0.310567
0.113639
-0.0407292
-0.148564
-0.214784
-0.25517
-0.278365
-0.245336
-0.0916084
3.10094
2.74304
2.508
2.3813
2.33772
2.32255
2.3035
2.29159
2.29591
2.30817
2.31065
2.28922
2.23593
2.14312
2.00307
1.81117
1.56981
1.28891
0.983856
0.672975
0.375227
0.108473
-0.112091
-0.275214
-0.375686
-0.419471
-0.426687
-0.411636
-0.334683
-0.123237
2.48754
2.05079
1.91526
1.94444
2.06489
2.17498
2.20464
2.22544
2.27166
2.33053
2.37121
2.3731
2.3322
2.24204
2.09205
1.87511
1.59399
1.26229
0.901091
0.534168
0.185509
-0.122135
-0.369141
-0.541133
-0.631645
-0.647546
-0.613197
-0.550905
-0.425642
-0.155704
128.294
128.643
129.096
129.561
130.05
130.59
131.178
131.802
132.452
133.12
133.798
134.473
135.131
135.754
136.322
136.814
137.204
137.462
137.543
137.387
136.923
136.068
134.698
132.619
129.546
125.033
118.306
107.652
89.3622
35.783
127.682
128.028
128.465
128.899
129.347
129.838
130.366
130.919
131.487
132.063
132.635
133.191
133.715
134.189
134.592
134.9
135.085
135.109
134.923
134.461
133.646
132.383
130.524
127.849
124.042
118.604
110.702
98.7265
81.9439
59.3858
127.035
127.378
127.795
128.198
128.606
129.045
129.511
129.991
130.475
130.954
131.418
131.853
132.242
132.565
132.801
132.924
132.903
132.695
132.247
131.492
130.352
128.72
126.444
123.315
119.048
113.254
105.46
95.0928
82.8155
70.3648
126.353
126.692
127.09
127.461
127.828
128.213
128.615
129.021
129.419
129.801
130.155
130.467
130.72
130.893
130.964
130.905
130.681
130.249
129.555
128.533
127.104
125.164
122.574
119.158
114.699
108.949
101.686
92.6583
81.7857
69.2239
125.639
125.973
126.351
126.69
127.014
127.346
127.682
128.012
128.323
128.607
128.852
129.042
129.161
129.187
129.096
128.86
128.443
127.803
126.886
125.63
123.959
121.78
118.976
115.408
110.922
105.352
98.5508
90.3371
80.5258
69.5557
124.893
125.223
125.581
125.887
126.167
126.444
126.716
126.969
127.194
127.381
127.517
127.588
127.575
127.458
127.212
126.809
126.213
125.383
124.27
122.817
120.954
118.603
115.669
112.05
107.633
102.312
95.9971
88.6206
80.1683
71.1206
124.118
124.442
124.781
125.054
125.291
125.514
125.72
125.898
126.037
126.128
126.158
126.112
125.973
125.719
125.328
124.769
124.011
123.015
121.735
120.121
118.115
115.65
112.657
109.06
104.786
99.7721
93.9824
87.4185
80.1172
72.4096
123.316
123.636
123.955
124.195
124.388
124.557
124.699
124.802
124.857
124.855
124.783
124.626
124.367
123.985
123.458
122.759
121.857
120.717
119.3
117.562
115.456
112.93
109.932
106.413
102.327
97.6447
92.3593
86.4956
80.0979
73.4145
122.491
122.806
123.106
123.314
123.463
123.579
123.658
123.689
123.662
123.569
123.4
123.138
122.767
122.266
121.617
120.793
119.766
118.506
116.98
115.152
112.985
110.44
107.481
104.075
100.2
95.846
91.0219
85.7621
80.1164
74.2836
121.646
121.956
122.236
122.413
122.52
122.584
122.603
122.564
122.458
122.279
122.018
121.659
121.183
120.574
119.816
118.883
117.75
116.394
114.787
112.899
110.703
108.171
105.28
102.011
98.3544
94.3142
89.9085
85.1749
80.1628
75.0291
120.785
121.089
121.352
121.497
121.563
121.577
121.538
121.433
121.251
120.991
120.645
120.196
119.626
118.92
118.066
117.04
115.821
114.391
112.726
110.804
108.605
106.111
103.307
100.186
96.747
93.0011
88.971
84.6931
80.2123
75.6522
119.912
120.211
120.455
120.57
120.597
120.564
120.47
120.301
120.05
119.715
119.29
118.758
118.103
117.313
116.376
115.273
113.987
112.501
110.799
108.864
106.683
104.244
101.54
98.5707
95.3415
91.8669
88.1706
84.286
80.2522
76.1674
119.032
119.325
119.552
119.638
119.627
119.549
119.402
119.175
118.86
118.457
117.96
117.353
116.624
115.761
114.754
113.589
112.251
110.727
109.006
107.075
104.927
102.555
99.9573
97.1384
94.1072
90.8795
87.4784
83.9334
80.2778
76.5902
118.149
118.436
118.646
118.706
118.66
118.538
118.342
118.061
117.689
117.224
116.661
115.988
115.195
114.271
113.207
111.993
110.617
109.07
107.343
105.43
103.325
101.028
98.5388
95.8654
93.0183
90.0138
86.8728
83.6213
80.2873
76.9339
117.268
117.549
117.744
117.779
117.699
117.538
117.296
116.966
116.542
116.022
115.401
114.671
113.822
112.847
111.738
110.487
109.086
107.528
105.808
103.921
101.868
99.6482
97.2667
94.7314
92.0538
89.2496
86.3376
83.3402
80.2809
77.2107
116.395
116.671
116.85
116.861
116.751
116.553
116.271
115.896
115.426
114.857
114.186
113.406
112.511
111.495
110.351
109.073
107.657
106.098
104.394
102.542
100.544
98.4031
96.1253
93.7192
91.1963
88.5711
85.8605
83.0834
80.2597
77.4307
115.535
115.805
115.97
115.96
115.822
115.591
115.272
114.858
114.346
113.735
113.021
112.199
111.267
110.217
109.047
107.753
106.331
104.779
103.096
101.283
99.343
97.28
95.1007
92.8143
90.4317
87.9661
85.4323
82.8466
80.2255
77.603
114.694
114.958
115.111
115.08
114.917
114.657
114.305
113.856
113.308
112.66
111.91
111.055
110.092
109.017
107.829
106.525
105.104
103.565
101.909
100.138
98.2559
96.2679
94.1812
92.0046
89.7485
87.4247
85.0462
82.6269
80.1808
77.7357
113.879
114.137
114.277
114.229
114.044
113.757
113.376
112.897
112.318
111.639
110.859
109.976
108.99
107.897
106.698
105.39
103.976
102.454
100.827
99.0994
97.2742
95.3575
93.3567
91.2802
89.1375
86.9394
84.6972
82.4227
80.1279
77.8357
113.095
113.347
113.476
113.412
113.207
112.898
112.492
111.987
111.381
110.676
109.872
108.967
107.963
106.858
105.653
104.347
102.943
101.442
99.8465
98.1611
96.3906
94.5408
92.6189
90.6329
88.5916
86.5045
84.3817
82.2332
80.0693
77.909
112.349
112.595
112.713
112.635
112.413
112.084
111.657
111.13
110.502
109.776
108.952
108.031
107.014
105.902
104.695
103.395
102.004
100.525
98.9616
97.3177
95.5989
93.811
91.961
90.0563
88.105
86.1156
84.097
82.0581
80.0075
77.9611
111.647
111.887
111.996
111.905
111.668
111.323
110.878
110.332
109.687
108.943
108.104
107.171
106.146
105.03
103.825
102.533
101.158
99.7015
98.169
96.5647
94.894
93.1627
91.3774
89.5452
87.6734
85.7697
83.8419
81.8978
79.945
77.9969
110.997
111.232
111.331
111.229
110.979
110.62
110.16
109.599
108.939
108.182
107.332
106.391
105.36
104.244
103.043
101.761
100.402
98.9683
97.4656
95.8982
94.2715
92.5913
90.8638
89.0956
87.2934
85.4642
83.6149
81.7526
79.8839
78.0199
110.406
110.634
110.725
110.614
110.353
109.981
109.509
108.936
108.264
107.498
106.639
105.692
104.66
103.545
102.35
101.079
99.7358
98.3245
96.8496
95.3161
93.7291
92.0943
90.4177
88.7054
86.9636
85.1987
83.4169
81.6245
79.8274
78.0352
109.881
110.104
110.186
110.066
109.795
109.414
108.931
108.348
107.668
106.894
106.03
105.079
104.046
102.934
101.746
100.486
99.159
97.7681
96.3186
94.8152
93.2633
91.6682
90.0357
88.3715
86.6813
84.9711
83.2464
81.5129
79.776
78.0436
109.43
109.647
109.721
109.592
109.313
108.924
108.433
107.843
107.156
106.377
105.509
104.557
103.525
102.417
101.236
99.9871
98.6741
97.3016
95.8743
94.3973
92.8756
91.3145
89.7193
88.0957
86.4488
84.7842
83.1071
81.4226
79.7357
78.053
109.063
109.272
109.336
109.198
108.912
108.516
108.019
107.423
106.731
105.948
105.078
104.126
103.096
101.992
100.818
99.5784
98.2781
96.9213
95.513
94.058
92.5613
91.028
89.4634
87.8726
86.2607
84.6328
82.9937
81.3482
79.7007
78.0569
108.789
108.988
109.041
108.896
108.605
108.204
107.702
107.102
106.407
105.621
104.75
103.798
102.77
101.669
100.501
99.2702
97.9803
96.6365
95.2434
93.806
92.3292
90.818
89.2773
87.7123
86.1277
84.5283
82.9189
81.3038
79.6875
78.0747
108.624
108.794
108.828
108.678
108.385
107.981
107.476
106.874
106.177
105.39
104.519
103.568
102.542
101.445
100.281
99.0563
97.7741
96.4394
95.057
93.6317
92.1684
90.6721
89.1477
87.5999
86.0334
84.453
82.863
81.2677
79.6712
78.0776
108.615
108.724
108.732
108.576
108.28
107.873
107.365
106.76
106.062
105.275
104.404
103.454
102.43
101.336
100.176
98.9554
97.6786
96.3502
94.9751
93.5579
92.1036
90.6169
89.1027
87.5657
86.0105
84.4417
82.8635
81.2801
79.6955
78.1132
-72.2867
-45.6314
-15.391
40.6168
35.0688
27.1172
54.6871
42.7013
32.6348
54.1102
44.2926
37.1796
58.3428
50.8614
44.8943
62.2853
56.1228
50.922
64.9799
59.7843
55.3666
67.0909
62.6899
58.9443
68.8464
65.0673
61.8494
70.2894
66.9968
64.1951
71.4717
68.5691
66.101
72.4433
69.8581
67.6606
73.2425
70.9187
68.9435
73.9002
71.7941
70.0037
74.4411
72.5182
70.883
74.8851
73.1177
71.6139
75.2486
73.6137
72.2219
75.5452
74.0241
72.7281
75.7863
74.3632
73.1496
75.9813
74.6427
73.5003
76.1385
74.873
73.792
76.2653
75.0629
74.0347
76.3662
75.2182
74.2352
76.4477
75.3457
74.4011
76.5111
75.4476
74.5352
76.5668
75.5349
74.6485
76.6061
75.5994
74.7344
76.6531
75.6655
74.8155
76.6731
75.6988
74.8608
76.7268
75.7648
74.9327
3.88249
-0.138816
0.443732
0.997906
1.64515
2.09513
2.13248
2.1533
2.24411
2.36858
2.46039
2.48479
2.45562
2.36952
2.20932
1.96276
1.63308
1.23944
0.810935
0.378205
-0.0291889
-0.383126
-0.6589
-0.838643
-0.914803
-0.895416
-0.809188
-0.689087
-0.511965
-0.188177
10.6456
1.788
1.65367
2.0902
2.5004
2.3795
1.95402
1.90162
2.12372
2.4172
2.60366
2.63839
2.61704
2.53932
2.37039
2.08795
1.69676
1.22515
0.714906
0.205388
-0.268577
-0.673653
-0.979521
-1.16467
-1.22148
-1.16034
-1.01396
-0.826067
-0.593541
-0.21924
18.9025
8.91009
5.69557
4.14007
3.12589
2.40899
2.2265
2.33849
2.57671
2.81352
2.86808
2.80775
2.78984
2.74071
2.57296
2.2484
1.78064
1.21483
0.612287
0.0194464
-0.526211
-0.985644
-1.32106
-1.50676
-1.53706
-1.42661
-1.21129
-0.941926
-0.646577
-0.245645
27.8289
18.4579
12.7054
8.91402
6.29029
4.60044
3.70112
3.2581
3.08195
3.07075
3.10665
3.16246
3.19157
3.11827
2.88034
2.46341
1.89589
1.22379
0.518882
-0.173526
-0.801366
-1.31596
-1.67197
-1.84168
-1.8263
-1.64999
-1.35853
-1.01122
-0.657008
-0.260127
36.8305
28.0063
20.9302
15.5739
11.6457
8.84971
6.92396
5.62477
4.78269
4.27308
3.97365
3.78755
3.63082
3.43289
3.1249
2.65775
2.02431
1.26345
0.448711
-0.345039
-1.04552
-1.59656
-1.95339
-2.09305
-2.02591
-1.79013
-1.44323
-1.04631
-0.634908
-0.259636
44.092
36.2639
28.9404
22.7963
17.9733
14.2598
11.4308
9.31063
7.7524
6.62305
5.79596
5.16273
4.63654
4.14159
3.60494
2.97022
2.21725
1.36856
0.481401
-0.371233
-1.11496
-1.68906
-2.04861
-2.17236
-2.07269
-1.79423
-1.40462
-0.976611
-0.564499
-0.272642
49.7464
43.0434
36.0837
29.771
24.5074
20.2067
16.711
13.9009
11.6696
9.90749
8.50542
7.36362
6.39483
5.52013
4.66866
3.78741
2.8537
1.88001
0.908956
0.000392966
-0.782205
-1.38357
-1.76367
-1.90651
-1.82821
-1.57584
-1.21794
-0.830359
-0.486039
-0.325495
54.2546
48.5117
42.1552
36.0625
30.73
26.1618
22.2593
18.953
16.1814
13.8706
11.9381
10.301
8.88136
7.60731
6.41603
5.2603
4.11655
2.98903
1.90708
0.916246
0.0671916
-0.594816
-1.03872
-1.25583
-1.26533
-1.11317
-0.864657
-0.594939
-0.384339
-0.371332
57.8489
52.8741
47.1682
41.4881
36.3259
31.7336
27.6559
24.0604
20.9219
18.1995
15.8378
13.7753
11.9504
10.3048
8.78677
7.35657
5.99184
4.69114
3.4728
2.36895
1.41701
0.650606
0.0913399
-0.257985
-0.417403
-0.429196
-0.35286
-0.258369
-0.221246
-0.358549
60.7208
56.3602
51.2616
46.0543
41.1845
36.7229
32.6407
28.9288
25.5857
22.5953
19.9256
17.5363
15.3834
13.4239
11.6183
9.93504
8.35495
6.87365
5.50131
4.25887
3.17183
2.26311
1.54626
1.01996
0.664847
0.443545
0.304178
0.185656
0.0236058
-0.274461
63.0405
59.1747
54.6074
49.8612
45.3265
41.0764
37.0965
33.39
29.9687
26.8331
23.9689
21.3529
18.9572
16.7525
14.7108
12.8091
11.0321
9.37455
7.8413
6.44495
5.20162
4.12567
3.22447
2.49402
1.91643
1.45968
1.08015
0.726883
0.347638
-0.128485
64.9334
61.472
57.3579
53.0305
48.8292
44.8222
41.0018
37.3763
33.964
30.7751
27.8077
25.051
22.4896
20.1056
17.881
15.8
13.8516
12.031
10.34
8.78556
7.37716
6.12289
5.02568
4.07998
3.26972
2.56806
1.93909
1.34138
0.733136
0.060693
66.4897
63.3638
59.6344
55.676
51.7859
48.0255
44.389
40.8858
37.5367
34.3573
31.3528
28.5214
25.8567
23.3493
20.9892
18.7666
16.6743
14.7088
12.8703
11.1625
9.59036
8.15774
6.86461
5.70469
4.66376
3.7195
2.84261
1.99953
1.1565
0.272933
67.7773
64.9325
61.5299
57.8935
54.2855
50.7606
47.3131
43.9513
40.6962
37.5654
34.5688
31.71
28.9887
26.4019
23.9453
21.6139
19.4038
17.3129
15.3412
13.4902
11.7622
10.1585
8.67731
7.31197
6.05006
4.8729
3.75646
2.67327
1.59527
0.491447
68.8476
66.2402
63.1165
59.76
56.4042
53.0976
49.8335
46.6186
43.4727
40.4139
37.454
34.6
31.8558
29.2226
26.7001
24.2872
21.9824
19.7851
17.6954
15.7141
13.842
12.0787
10.4214
8.86362
7.39443
5.99802
4.65431
3.3403
2.03184
0.704747
69.7401
67.335
64.4504
61.3369
58.2046
55.0968
52.0053
48.9352
45.9041
42.9295
40.024
37.1965
34.4529
31.7976
29.233
26.7605
24.3808
22.0945
19.9022
17.8044
15.8012
13.8915
12.072
10.3366
8.67553
7.07513
5.51831
3.98525
2.45442
0.906501
70.486
68.2544
65.5754
62.6727
59.7377
56.8089
53.8769
50.9448
48.0282
45.1432
42.3023
39.5149
36.7884
34.1286
31.54
29.0256
26.5877
24.228
21.9476
19.7471
17.6264
15.5841
13.6169
11.7189
9.88154
8.09279
6.3377
4.59871
2.85613
1.09419
71.1101
69.0275
66.5259
63.8066
61.0454
58.2765
55.4897
52.6865
49.8803
47.0856
44.314
41.5751
38.8765
36.2251
33.6263
31.0842
28.6023
26.1828
23.8277
21.5377
19.3128
17.1516
15.0508
13.0052
11.0068
9.04513
7.10669
5.17562
3.23357
1.2675
71.6329
69.6781
67.3295
64.7701
62.1616
59.5346
56.8787
54.1941
51.4919
48.7851
46.0841
43.3979
40.7343
38.1002
35.5014
32.9429
30.4286
27.9615
25.5439
23.1768
20.8603
18.5933
16.3727
14.1937
12.0492
9.9295
7.82246
5.71347
3.58527
1.42699
72.0709
70.2258
68.0094
65.589
63.114
60.6123
58.0736
55.4968
52.8911
50.2676
47.6358
45.0039
42.379
39.768
37.1768
34.6106
32.0736
29.5693
27.1
24.6671
22.271
19.9107
17.5834
15.2848
13.0082
10.745
8.48389
6.21126
3.91082
1.57342
72.4376
70.6865
68.5838
66.2839
63.9253
61.534
59.0995
56.6197
54.1021
51.5562
48.9905
46.4119
43.8273
41.2429
38.6645
36.0972
33.5453
31.0123
28.5009
26.0126
23.5479
21.1059
18.6843
16.2791
13.8842
11.4914
9.09041
6.6684
4.20993
1.70718
72.7443
71.0734
69.0685
66.8724
64.615
62.3203
59.9778
57.5844
55.1463
52.6715
50.1673
47.6399
45.0952
42.539
39.9766
37.4129
34.8522
32.2979
29.7526
27.2179
24.6946
22.1819
19.6777
17.1782
14.6779
12.1692
9.64226
7.08507
4.48289
1.82881
72.9995
71.3971
69.4758
67.369
65.1989
62.988
60.7259
58.4088
56.0414
53.6307
51.1828
48.703
46.1965
43.6685
41.1238
38.567
36.002
33.4321
30.8598
28.287
25.7141
23.1406
20.5647
17.9827
15.3895
12.7779
10.1387
7.46038
4.7289
1.93786
73.2117
71.6676
69.8177
67.787
65.6914
63.5524
61.3599
59.1092
56.804
54.45
52.0525
49.6161
47.1452
44.6442
42.1176
39.5695
37.0034
34.4225
31.8292
29.2251
26.6108
23.9858
21.3483
18.6949
16.0208
13.3191
10.581
7.79556
4.94917
2.03541
73.3851
71.8901
70.1004
68.1338
66.1009
64.023
61.8899
59.6961
57.4444
55.1397
52.7864
50.3884
47.9494
45.4734
42.9642
40.4254
37.8604
35.272
32.6625
30.0331
27.3846
24.7165
22.0269
19.3127
16.5692
13.7898
10.9661
8.08736
5.14065
2.11934
73.5298
72.0752
70.3354
68.4216
66.4406
64.4136
62.3303
60.1843
57.9777
55.7146
53.399
51.0339
48.6228
46.1688
43.6755
41.146
38.5833
35.9899
33.368
30.7186
28.0425
25.3389
22.6062
19.8413
17.0396
14.1946
11.2983
8.34017
5.30764
2.19302
73.6422
72.2201
70.5197
68.6478
66.7083
64.7224
62.6793
60.572
58.4018
56.1727
53.8878
51.5499
49.1618
46.7264
44.2466
41.7254
39.1654
36.5689
33.9377
31.2729
28.575
25.8432
23.0759
20.2701
17.4211
14.5228
11.5671
8.54385
5.44086
2.25002
73.741
72.3433
70.673
68.833
66.9252
64.9705
62.958
60.8802
58.7382
56.5351
54.2739
51.9571
49.5869
47.1659
44.6969
42.1824
39.6248
37.0262
34.3882
31.7118
28.9973
26.244
23.4502
20.6128
17.7273
14.7875
11.7853
8.71091
5.55199
2.29889
73.8016
72.4198
70.7697
68.9517
67.0655
65.1319
63.1401
61.0825
58.9594
56.774
54.529
52.2265
49.8686
47.4577
44.9961
42.4864
39.9307
37.3309
34.6885
32.0045
29.2789
26.5112
23.6994
20.8406
17.9301
14.9618
11.9275
8.81727
5.61916
2.32359
73.8733
72.4928
70.8534
69.0484
67.1743
65.252
63.2711
61.2239
59.1107
56.9343
54.6974
52.4018
50.0497
47.6433
45.1849
42.6767
40.121
37.5195
34.8737
32.1845
29.452
26.6756
23.8532
20.982
18.0572
15.0726
12.0198
8.888
5.66324
2.32818
)
;

boundaryField
{
    inlet
    {
        type            zeroGradient;
    }
    outlet
    {
        type            fixedValue;
        value           uniform 0;
    }
    flap
    {
        type            zeroGradient;
    }
    upperWall
    {
        type            zeroGradient;
    }
    lowerWall
    {
        type            zeroGradient;
    }
    frontAndBack
    {
        type            empty;
    }
}


// ************************************************************************* //
