/*--------------------------------*- C++ -*----------------------------------*\
| =========                 |                                                 |
| \\      /  F ield         | OpenFOAM: The Open Source CFD Toolbox           |
|  \\    /   O peration     | Version:  4.1                                   |
|   \\  /    A nd           | Web:      www.OpenFOAM.org                      |
|    \\/     M anipulation  |                                                 |
\*---------------------------------------------------------------------------*/
FoamFile
{
    version     2.0;
    format      ascii;
    class       surfaceScalarField;
    location    "2.9";
    object      phi;
}
// * * * * * * * * * * * * * * * * * * * * * * * * * * * * * * * * * * * * * //

dimensions      [0 3 -1 0 0 0 0];

internalField   nonuniform List<scalar> 
5457
(
0.198418
0.00195688
0.196506
0.00222731
0.194253
0.00249857
0.191621
0.002818
0.188627
0.00313264
0.185288
0.00343695
0.181608
0.00373942
0.177585
0.00404797
0.17321
0.00436781
0.168474
0.00470167
0.163363
0.00505217
0.157863
0.00542151
0.151954
0.00581165
0.145615
0.00622464
0.138822
0.00666193
0.131555
0.00712359
0.123789
0.00760936
0.115505
0.00811697
0.106689
0.00864112
0.097335
0.00917473
0.0874448
0.00970741
0.0770357
0.0102239
0.0661457
0.0107028
0.054842
0.0111165
0.0432301
0.0114289
0.0314749
0.0115799
0.0198476
0.0114637
0.00887612
0.0108273
4.49354e-06
0.00876531
-0.000135276
0.200144
0.00218942
0.199537
0.00315011
0.198454
0.00382687
0.196947
0.00450983
0.195035
0.00518434
0.19273
0.00584088
0.190037
0.00649345
0.186954
0.00715676
0.183475
0.00784012
0.179593
0.0085498
0.175295
0.00929152
0.170569
0.0100702
0.165395
0.0108902
0.15975
0.0117561
0.153611
0.0126707
0.146958
0.0136351
0.139762
0.0146504
0.131998
0.015714
0.123649
0.0168163
0.114702
0.0179443
0.105148
0.0190806
0.0949925
0.0201976
0.0842547
0.0212559
0.0729802
0.0222054
0.061251
0.0229775
0.0492014
0.0234582
0.0370543
0.0234519
0.0251648
0.0225778
0.013651
0.020185
0.0133734
0.200002
0.0025664
0.199472
0.00399861
0.198466
0.0050772
0.197062
0.00609802
0.19529
0.00709676
0.193161
0.00807189
0.190674
0.00904267
0.187831
0.0100279
0.184627
0.011039
0.181057
0.0120868
0.177111
0.0131801
0.172778
0.0143267
0.168042
0.0155346
0.162879
0.0168102
0.157263
0.018159
0.151175
0.019585
0.144586
0.0210906
0.137461
0.0226743
0.129778
0.024328
0.121509
0.0260381
0.112628
0.027785
0.103116
0.029536
0.0929451
0.0312481
0.0821031
0.0328639
0.0706025
0.0343032
0.058454
0.0354452
0.0456608
0.0361008
0.0320944
0.0360223
0.0170488
0.0351655
0.030298
0.19992
0.0030291
0.199396
0.00484492
0.198408
0.00631059
0.197021
0.0076658
0.195285
0.00897647
0.193204
0.0102595
0.190775
0.0115377
0.188002
0.0128307
0.184887
0.014153
0.181422
0.0155197
0.177604
0.016942
0.173425
0.0184304
0.168873
0.019997
0.163933
0.0216495
0.158572
0.0233975
0.152771
0.0252496
0.146512
0.0272068
0.139759
0.0292714
0.132478
0.0314416
0.124636
0.0337092
0.116189
0.0360599
0.107096
0.0384644
0.0972938
0.0408847
0.0867072
0.043275
0.0752645
0.0455801
0.0628532
0.0477107
0.0493153
0.049519
0.0344397
0.0508089
0.0178956
0.0516892
0.0480882
0.199883
0.00353368
0.199354
0.00570106
0.198379
0.00752984
0.197014
0.00921124
0.195313
0.0108255
0.193274
0.0124099
0.190892
0.0139888
0.188176
0.0155822
0.185124
0.017208
0.18173
0.0188839
0.177993
0.0206247
0.173909
0.0224443
0.169462
0.0243568
0.164642
0.0263729
0.159422
0.0285048
0.153775
0.0307632
0.14769
0.0331534
0.141131
0.0356838
0.134054
0.0383583
0.126418
0.0411794
0.118166
0.0441436
0.109234
0.0472364
0.0995394
0.0504318
0.088965
0.0536986
0.0773778
0.0570189
0.06461
0.0603548
0.0504627
0.063579
0.0348004
0.0664269
0.0177367
0.0687808
0.0657414
0.19987
0.0040583
0.199336
0.00656356
0.198376
0.00872978
0.197048
0.0107252
0.195391
0.0126376
0.193399
0.0145167
0.191071
0.0163891
0.188417
0.0182759
0.185433
0.0201984
0.182116
0.0221757
0.178463
0.0242285
0.174467
0.0263748
0.170114
0.0286279
0.16539
0.0310039
0.160278
0.0335148
0.154747
0.0361731
0.148772
0.0389957
0.14232
0.041997
0.13534
0.0451875
0.127784
0.0485787
0.119589
0.0521799
0.110664
0.0560061
0.100906
0.0600581
0.0901693
0.0643165
0.0783017
0.0687681
0.0651426
0.0734213
0.0505331
0.0781416
0.0344372
0.0825284
0.0172961
0.0859927
0.0829843
0.199869
0.00459044
0.199337
0.00742381
0.198401
0.00990547
0.197119
0.012202
0.195513
0.0144064
0.193574
0.0165728
0.191308
0.01873
0.188725
0.0209019
0.185821
0.0231129
0.18259
0.0253861
0.179031
0.0277457
0.175136
0.0302121
0.170888
0.0328017
0.166271
0.0355332
0.161273
0.0384205
0.155855
0.0414847
0.149978
0.0447496
0.143609
0.0482364
0.13669
0.0519696
0.129162
0.0559648
0.120956
0.0602437
0.11197
0.0648558
0.102076
0.0698374
0.0911126
0.0751871
0.0789205
0.0808802
0.0653717
0.0869197
0.0503944
0.093119
0.03404
0.0989395
0.0169309
0.103211
0.0998976
0.199871
0.00512177
0.199355
0.00827261
0.198452
0.0110526
0.197221
0.0136377
0.195671
0.0161252
0.193794
0.0185698
0.1916
0.0210019
0.1891
0.023449
0.186286
0.0259403
0.183153
0.0285031
0.179704
0.0311625
0.175928
0.0339414
0.171804
0.0368621
0.167314
0.0399454
0.162442
0.043212
0.157144
0.046689
0.151383
0.0504021
0.145114
0.054389
0.138272
0.0586902
0.130787
0.0633299
0.122564
0.0683488
0.113501
0.0738072
0.103468
0.0797797
0.0922934
0.0862974
0.0798126
0.0933233
0.0659241
0.100808
0.050641
0.108453
0.0340806
0.115606
0.0169106
0.120529
0.116821
0.199876
0.00564712
0.199383
0.00910202
0.198527
0.0121659
0.197351
0.0150281
0.195862
0.0177879
0.194055
0.0204995
0.191944
0.023195
0.189536
0.0259063
0.186825
0.0286674
0.183807
0.0315091
0.180487
0.0344589
0.176849
0.0375439
0.172867
0.04079
0.168525
0.0442221
0.163795
0.0478699
0.158645
0.0517615
0.153037
0.0559269
0.146899
0.0604264
0.140171
0.0653131
0.132778
0.0706269
0.124604
0.076435
0.115531
0.0827996
0.105423
0.0898255
0.094114
0.0975776
0.0814368
0.106008
0.0673019
0.114993
0.0517568
0.124099
0.0349424
0.132571
0.0174552
0.138201
0.134302
0.199879
0.00616211
0.199421
0.00990459
0.198622
0.0132405
0.197506
0.0163694
0.196083
0.0193884
0.194353
0.0223541
0.192332
0.0253013
0.190028
0.0282653
0.187437
0.0312846
0.184553
0.0343929
0.181378
0.0376213
0.177891
0.041003
0.174071
0.0445662
0.169901
0.0483382
0.16535
0.0523566
0.160392
0.0566574
0.154978
0.0612847
0.14902
0.0663056
0.142463
0.0717829
0.135242
0.0777807
0.127238
0.084388
0.118281
0.0917103
0.108225
0.0998517
0.0969401
0.108875
0.0842322
0.11877
0.0699893
0.129337
0.0542241
0.140013
0.037023
0.149964
0.0188154
0.156629
0.153145
0.19989
0.00666163
0.199469
0.0106762
0.198731
0.0142726
0.197682
0.0176568
0.196327
0.0209217
0.19468
0.0241264
0.192759
0.0273111
0.190574
0.0305156
0.188117
0.0337809
0.185386
0.0371427
0.182371
0.0406385
0.179051
0.0443051
0.175417
0.0481694
0.17145
0.0522658
0.167119
0.056639
0.162391
0.0613368
0.15721
0.0664217
0.151503
0.0719588
0.145219
0.0780147
0.13828
0.0846847
0.130568
0.0920859
0.121898
0.100373
0.112127
0.109637
0.101117
0.119945
0.0886393
0.131352
0.0745119
0.143616
0.0586186
0.156103
0.0408666
0.167949
0.0214071
0.176348
0.174581
0.199916
0.00714281
0.199528
0.0114174
0.198847
0.0152582
0.19787
0.0188835
0.196591
0.0223809
0.195034
0.025808
0.193227
0.0292126
0.191177
0.0326421
0.188868
0.0361394
0.186298
0.039744
0.183453
0.043497
0.180323
0.0474299
0.176908
0.051573
0.173179
0.0559743
0.169103
0.0606837
0.16465
0.065757
0.159754
0.0712743
0.154381
0.0772987
0.148486
0.0839001
0.141963
0.0912068
0.134685
0.0993736
0.12653
0.108562
0.117364
0.118875
0.106982
0.130437
0.0951252
0.14336
0.0814999
0.157443
0.0657462
0.172102
0.0473985
0.186577
0.0260967
0.197962
0.20073
0.199946
0.00760504
0.199595
0.0121259
0.19897
0.0161924
0.198066
0.0200409
0.196874
0.023755
0.195422
0.0273896
0.193743
0.0309977
0.191834
0.0346374
0.189679
0.0383534
0.187275
0.0421864
0.184619
0.0461742
0.181713
0.0503474
0.178546
0.0547486
0.175084
0.059432
0.171306
0.0644499
0.167174
0.069871
0.162634
0.0757798
0.157691
0.082232
0.152298
0.089318
0.146346
0.0971903
0.139715
0.106035
0.132343
0.116002
0.124127
0.127217
0.114828
0.139894
0.104166
0.154219
0.0917269
0.17013
0.0768228
0.187299
0.0583528
0.205379
0.034889
0.221802
0.235746
0.19997
0.00804586
0.199672
0.012797
0.199107
0.0170723
0.198272
0.0211247
0.197175
0.0250373
0.195845
0.0288625
0.194302
0.0326613
0.192535
0.0364979
0.19054
0.0404147
0.188324
0.0444507
0.185886
0.0486456
0.183225
0.0530367
0.180325
0.057672
0.17716
0.0626086
0.173707
0.0679054
0.169937
0.0736356
0.165845
0.0798675
0.161437
0.0866662
0.156656
0.0941527
0.151423
0.102485
0.145666
0.111857
0.139375
0.1224
0.132488
0.134272
0.124826
0.147758
0.116143
0.163138
0.106015
0.180547
0.0935554
0.200097
0.0769708
0.222343
0.0527823
0.246417
0.28883
0.199992
0.00846307
0.199755
0.0134274
0.199254
0.0178976
0.198485
0.0221353
0.197487
0.0262253
0.196289
0.0302249
0.194881
0.034202
0.193261
0.038216
0.191446
0.0423081
0.189435
0.046523
0.187225
0.0509033
0.184815
0.0554888
0.18219
0.0603313
0.179334
0.0654899
0.176229
0.0710243
0.17288
0.0769964
0.169311
0.0834697
0.165507
0.0905342
0.161425
0.098314
0.157021
0.106971
0.152318
0.116662
0.147378
0.127497
0.142182
0.139675
0.136689
0.153491
0.130855
0.169243
0.124546
0.187183
0.117183
0.207832
0.107215
0.232713
0.0891363
0.264898
0.3786
0.000788036
-0.000780297
0.00313338
-0.00232913
0.0063211
-0.00305455
0.00952222
-0.00300308
0.0122895
-0.00255075
0.0144354
-0.00196909
0.0159414
-0.0014093
0.0169295
-0.000943811
0.017516
-0.000599322
0.0177751
-0.000353734
0.0178022
-0.000175821
0.0176782
-6.95008e-05
0.0174375
1.15971e-06
0.0170649
9.89249e-05
0.0165238
0.00023824
0.0158451
0.000347728
0.0151096
0.000373679
0.014304
0.000418916
0.0133164
0.000579722
0.0121405
0.000737619
0.01093
0.000741773
0.00989631
0.000537562
0.0092007
0.000169738
0.00887705
-0.000218122
0.00891285
-0.000574893
0.00925694
-0.000907906
0.00985251
-0.00120381
0.0107157
-0.00149075
0.0118486
-0.00178993
-0.00197703
0.00103136
-0.00181834
0.0034395
-0.00469878
0.0064445
-0.00591355
0.00945358
-0.00580814
0.0121416
-0.00501295
0.0143351
-0.00397573
0.0160057
-0.00296199
0.0172484
-0.00211489
0.0181166
-0.00146207
0.0186664
-0.000975173
0.0189567
-0.000592081
0.0190567
-0.000355597
0.0190097
-0.00018847
0.0187704
7.1104e-05
0.0182899
0.000422465
0.0176459
0.000668947
0.0169551
0.000711673
0.0161679
0.00082758
0.0151283
0.00122177
0.0138789
0.00155651
0.0126163
0.00153881
0.0115071
0.00115354
0.0105301
0.000622183
0.00959248
0.000179176
0.00863034
-0.000146158
0.00780615
-0.000644526
0.00727247
-0.00127595
0.00715527
-0.00198938
0.00750512
-0.00279102
-0.00340179
0.00140932
-0.0032258
0.00367929
-0.00689094
0.00615488
-0.00822196
0.00850081
-0.00794094
0.0105485
-0.00683151
0.0121933
-0.00543724
0.0134349
-0.00408227
0.0143565
-0.00295855
0.0150015
-0.00210193
0.0153747
-0.00141278
0.0154943
-0.000822657
0.0154363
-0.000472794
0.0152458
-0.000225398
0.014807
0.000253514
0.0140062
0.000936129
0.0130215
0.00134409
0.0120063
0.00139558
0.0108056
0.00166206
0.00920908
0.00242024
0.00729631
0.00304153
0.00511891
0.00325686
0.00272281
0.00306226
0.000430667
0.00239659
-0.00136904
0.00144023
-0.00249666
0.000435404
-0.00317559
-0.000542796
-0.0034175
-0.00164004
-0.00324369
-0.00275854
-0.00290013
-0.00376877
-0.00435518
0.00176647
-0.00498764
0.00384608
-0.00885277
0.00572881
-0.00991846
0.00731172
-0.009303
0.00857528
-0.00786885
0.00951413
-0.00619699
0.0101662
-0.00461464
0.0105755
-0.0032989
0.0107818
-0.00231084
0.010847
-0.00154328
0.0105595
-0.000643679
0.0101099
-0.000184199
0.00936471
0.000311412
0.00815775
0.00121526
0.00637654
0.00243699
0.003959
0.00345521
0.00106388
0.00397016
-0.00162468
0.0040006
-0.00368435
0.00408634
-0.00544498
0.00437667
-0.0070468
0.00440645
-0.00843748
0.00397297
-0.00960654
0.0030568
-0.010543
0.00184199
-0.0112294
0.00056254
-0.0116733
-0.000691955
-0.0120065
-0.00191629
-0.012302
-0.0030469
-0.0126783
-0.00400643
-0.00468354
0.00194361
-0.00693294
0.00367849
-0.010439
0.00486788
-0.0109081
0.00559567
-0.00980564
0.00597317
-0.00802543
0.00608519
-0.00613289
0.00601563
-0.004427
0.00588475
-0.0031079
0.00542349
-0.00185961
0.00452091
-0.000712911
0.00283147
0.000921892
0.000222485
0.00226358
-0.00249423
0.00283198
-0.0046566
0.00313767
-0.00639819
0.00390294
-0.00806278
0.00480935
-0.00977357
0.0053524
-0.0115124
0.0053992
-0.0131302
0.00532893
-0.0144756
0.0053064
-0.015577
0.00506305
-0.0165014
0.00442521
-0.0173417
0.00339604
-0.0181541
0.00212538
-0.0189376
0.00078279
-0.0196742
-0.000551527
-0.0203806
-0.00181404
-0.0210685
-0.00294487
-0.0217758
-0.00391283
-0.00465081
0.00183224
-0.00877678
0.00294274
-0.0113777
0.00325916
-0.0110141
0.00296246
-0.00928272
0.00229638
-0.00714725
0.00146907
-0.00514069
0.000237134
-0.00308888
-0.0018265
-0.000996069
-0.00451808
0.000807363
-0.00711596
0.0017943
-0.00899694
0.0026591
-0.0104954
0.00358945
-0.0120433
0.00418414
-0.0137028
0.00456064
-0.0152165
0.00514601
-0.0165458
0.00583107
-0.0178028
0.00627317
-0.0191041
0.00635277
-0.0204004
0.00625762
-0.0215678
0.0060708
-0.0225913
0.00565692
-0.0235296
0.00490876
-0.0244508
0.00383214
-0.0253721
0.0025334
-0.0262929
0.00114696
-0.0272095
-0.000230353
-0.0281119
-0.00151119
-0.0290047
-0.0026532
-0.0299197
-0.00362819
-0.00433174
0.00131059
-0.0100962
0.00156446
-0.0114395
0.000639675
-0.00986841
-0.00108548
-0.00733357
-0.00340036
-0.00463465
-0.00631091
-0.00208511
-0.00932389
8.75e-06
-0.0117643
0.00147471
-0.0134466
0.00245163
-0.0150118
0.00325592
-0.0165194
0.00401494
-0.017855
0.00474192
-0.0191474
0.00527662
-0.0205023
0.00568805
-0.021808
0.00618751
-0.0230011
0.00672322
-0.0241513
0.00709079
-0.025355
0.00720069
-0.0265933
0.00711948
-0.0277925
0.00686815
-0.0289219
0.0063673
-0.0300014
0.00554865
-0.0310602
0.00442071
-0.0320966
0.00307227
-0.0331231
0.00163095
-0.0341693
0.00022273
-0.0352157
-0.00107469
-0.0362624
-0.00222604
-0.0373356
-0.00319246
-0.00383938
0.000371331
-0.0104561
-0.0009044
-0.0099521
-0.0036078
-0.00693472
-0.00713351
-0.0035914
-0.0107201
-0.000872753
-0.0137537
0.0010635
-0.0159738
0.00227939
-0.0177409
0.00323477
-0.0193562
0.00401252
-0.0208513
0.0046469
-0.0222322
0.00523981
-0.0234912
0.00580562
-0.0247062
0.00627955
-0.0259411
0.00669832
-0.0271696
0.0071563
-0.0283649
0.00762137
-0.0295649
0.007966
-0.0308262
0.00811091
-0.0321376
0.00805342
-0.0334493
0.00777559
-0.0347248
0.00721837
-0.0359579
0.00633627
-0.0371576
0.00514602
-0.038323
0.0037352
-0.0394711
0.00223639
-0.0406263
0.000785884
-0.0417906
-0.000531811
-0.0429693
-0.00168159
-0.0441665
-0.00262949
-0.00322883
-0.00123891
-0.00917577
-0.00448115
-0.00648305
-0.0088989
-0.00228361
-0.0129222
0.000630154
-0.0160821
0.00242977
-0.0184863
0.00354282
-0.0205814
0.00438062
-0.0224302
0.00502831
-0.0240532
0.00555366
-0.0255159
0.00599588
-0.0268634
0.00642009
-0.0281095
0.00685002
-0.0293184
0.00726762
-0.0305363
0.00768998
-0.0317771
0.00814416
-0.0330444
0.00859681
-0.0343531
0.00895691
-0.0357272
0.0091434
-0.0371545
0.00911316
-0.0385978
0.00882242
-0.0400226
0.00821898
-0.041411
0.00727431
-0.0427593
0.00601528
-0.044067
0.00453271
-0.045343
0.00296359
-0.0466043
0.00145461
-0.0478824
0.00011566
-0.049183
-0.00102835
-0.0504821
-0.00195789
-0.00252074
-0.00332138
-0.00578562
-0.00853921
-0.00103265
-0.0131754
0.00257387
-0.0167999
0.00441631
-0.0197351
0.00546369
-0.0222628
0.00609763
-0.0244439
0.00651845
-0.0263379
0.00683038
-0.0279744
0.00708488
-0.0294295
0.00731965
-0.0307737
0.00758497
-0.032034
0.00790748
-0.0332726
0.0082845
-0.0345286
0.00871855
-0.0358236
0.00919835
-0.0371802
0.00967688
-0.0386078
0.0100767
-0.0401081
0.0103124
-0.0416658
0.0103139
-0.0432496
0.0100213
-0.044828
0.00938331
-0.0463777
0.00838069
-0.0478848
0.00704848
-0.0493421
0.00548263
-0.0507523
0.00382717
-0.0521332
0.00224408
-0.0535182
0.000860517
-0.0549137
-0.000288158
-0.0562958
-0.00119339
-0.00172334
-0.0057486
5.3783e-05
-0.0115278
0.00496943
-0.0160305
0.00725916
-0.0198238
0.00830938
-0.0229662
0.0086477
-0.025579
0.00868817
-0.0277984
0.00864825
-0.0297012
0.00861007
-0.0313408
0.0085956
-0.0327884
0.00862656
-0.0341234
0.00874518
-0.0353973
0.00898222
-0.0366687
0.00933662
-0.0379785
0.00979501
-0.0393409
0.0103236
-0.0407826
0.0108584
-0.0423206
0.0113194
-0.0439447
0.0116154
-0.0456366
0.0116586
-0.0473674
0.0113772
-0.049107
0.0107183
-0.0508282
0.00966647
-0.0525085
0.00826123
-0.0541313
0.00660306
-0.055689
0.00484306
-0.0571878
0.00315654
-0.0586603
0.00169461
-0.0601317
0.000528071
-0.061597
-0.000347695
-0.00083323
-0.00717574
0.00732465
-0.0133993
0.0113783
-0.018577
0.0125444
-0.0227323
0.01248
-0.0259979
0.0118786
-0.0285921
0.0112131
-0.03075
0.010691
-0.0326023
0.0103164
-0.0342122
0.0100485
-0.0356268
0.0098899
-0.0369259
0.00988232
-0.0381915
0.0100581
-0.039477
0.0104108
-0.0408252
0.0109097
-0.0422485
0.0115057
-0.0437688
0.0121232
-0.0454055
0.0126699
-0.0471467
0.0130436
-0.0489725
0.0131447
-0.0508552
0.0128922
-0.0527645
0.0122302
-0.0546689
0.011142
-0.0565362
0.00966676
-0.0583378
0.00790738
-0.0600534
0.00602272
-0.0616802
0.00420499
-0.0632447
0.00263508
-0.0647795
0.00141729
-0.0663322
0.0005723
0.000145893
-0.00808511
0.0154528
-0.0155409
0.0189361
-0.0213767
0.0183828
-0.0257489
0.0167853
-0.0289335
0.0149529
-0.0313159
0.0134812
-0.0332725
0.0125228
-0.0349861
0.0118797
-0.0364951
0.0113914
-0.0378225
0.011057
-0.0390454
0.0109459
-0.0402629
0.0110933
-0.0415287
0.0114737
-0.0428809
0.0120371
-0.0443373
0.0127226
-0.0459162
0.0134467
-0.0476307
0.0141036
-0.0494701
0.0145761
-0.0514135
0.0147544
-0.0534342
0.014551
-0.0555018
0.0139062
-0.0575811
0.0127981
-0.0596316
0.0112607
-0.0616125
0.00939628
-0.0634915
0.00737189
-0.0652558
0.00539948
-0.0669252
0.0036956
-0.0685533
0.00241166
-0.0702149
0.00159243
0.00123272
-0.00929127
0.0246085
-0.0183224
0.0279592
-0.0248198
0.0247882
-0.0291282
0.0209791
-0.0318114
0.017493
-0.0336139
0.0151416
-0.0351816
0.0139538
-0.0366612
0.0132129
-0.0379773
0.0125526
-0.03912
0.0120421
-0.0401825
0.0118469
-0.0412804
0.0120129
-0.0424674
0.012464
-0.0437688
0.0131223
-0.0452031
0.0139232
-0.0467878
0.0147788
-0.0485291
0.0155689
-0.0504129
0.0161587
-0.0524143
0.0164277
-0.0545062
0.0162868
-0.0566603
0.0156743
-0.0588402
0.0145603
-0.0609989
0.0129682
-0.0630856
0.0109966
-0.0650573
0.00882002
-0.0668922
0.00667262
-0.0686072
0.00481241
-0.0702735
0.0034517
-0.0719902
0.00266306
0.00237545
-0.0107229
0.034802
-0.022751
0.0400127
-0.0296188
0.0315663
-0.0332222
0.0244715
-0.034678
0.0188184
-0.0352008
0.0155233
-0.0361464
0.0147517
-0.0373555
0.0142759
-0.0383982
0.013453
-0.0392086
0.0127036
-0.0399572
0.0124357
-0.040824
0.012705
-0.0418473
0.0132955
-0.0430214
0.0140864
-0.04436
0.0150331
-0.0458814
0.0160516
-0.047586
0.017002
-0.0494498
0.0177262
-0.0514386
0.0180938
-0.0535264
0.0180235
-0.0556937
0.0174608
-0.0579114
0.0163654
-0.0601318
0.0147428
-0.0622968
0.0126806
-0.0643511
0.0103567
-0.0662587
0.00802535
-0.0680246
0.00598774
-0.0697266
0.00453227
-0.0714997
0.00378727
0.00357149
0.20769
0.00886339
0.207509
0.0140308
0.207064
0.0186883
0.206348
0.0230988
0.205427
0.027352
0.204326
0.0315156
0.203021
0.0356579
0.201523
0.0398309
0.199848
0.0440813
0.197993
0.0484591
0.19596
0.0530043
0.193748
0.0577597
0.191346
0.062781
0.188756
0.0681196
0.185988
0.0738285
0.183062
0.0799683
0.179994
0.0866102
0.176775
0.0938479
0.173402
0.101794
0.169886
0.110592
0.166352
0.120338
0.162921
0.131136
0.159666
0.143179
0.156764
0.156673
0.154547
0.171777
0.153466
0.18864
0.154125
0.207588
0.158047
0.229223
0.17206
0.251303
0.268201
0.282921
0.212763
0.00924054
0.212635
0.0145962
0.212256
0.0194255
0.211621
0.0239928
0.210799
0.028393
0.209816
0.0327033
0.20865
0.0369904
0.20731
0.0413047
0.205808
0.045696
0.204151
0.0502126
0.202346
0.0548944
0.200393
0.0597865
0.198297
0.0649398
0.196076
0.0703999
0.193752
0.0762176
0.191346
0.0824557
0.188875
0.0891816
0.186366
0.0964757
0.183854
0.104436
0.181436
0.113149
0.179286
0.122675
0.17756
0.133104
0.176475
0.144541
0.176405
0.157046
0.177943
0.170585
0.181945
0.185037
0.18988
0.200074
0.204621
0.214909
0.228002
0.228336
0.24426
0.252258
0.217963
0.00959249
0.21789
0.0151163
0.217588
0.0200969
0.217059
0.0248034
0.216355
0.029335
0.215501
0.0337734
0.214488
0.0381841
0.213323
0.0426177
0.212018
0.0471242
0.210589
0.051749
0.209048
0.0565336
0.207401
0.0615209
0.205669
0.0667556
0.203873
0.0722815
0.202038
0.0781469
0.200197
0.0844057
0.198388
0.0911149
0.196667
0.0983375
0.195115
0.106139
0.193879
0.114563
0.193138
0.123643
0.193089
0.133418
0.194034
0.143893
0.196396
0.155006
0.200726
0.16661
0.207709
0.178442
0.2181
0.190081
0.232448
0.200947
0.249961
0.211165
0.220799
0.273648
0.223287
0.00991516
0.223282
0.0155831
0.223069
0.0206926
0.222661
0.0255198
0.222092
0.0301664
0.221382
0.0347129
0.220539
0.0392238
0.219571
0.0437508
0.218493
0.0483426
0.217323
0.0530435
0.216078
0.0578936
0.214774
0.0629327
0.213437
0.0682008
0.212095
0.0737369
0.210781
0.0795819
0.209542
0.0857791
0.208435
0.0923711
0.207539
0.0993987
0.206963
0.106895
0.20686
0.114875
0.207412
0.123341
0.208842
0.132272
0.211442
0.141604
0.215554
0.151225
0.221574
0.160936
0.229948
0.170433
0.241022
0.179374
0.255008
0.187301
0.27251
0.193949
0.198086
0.29541
0.228743
0.0102035
0.228815
0.0159902
0.228705
0.021206
0.228425
0.0261334
0.228003
0.0308742
0.227458
0.0355064
0.226803
0.0400934
0.226052
0.0446874
0.225222
0.0493353
0.224334
0.0540791
0.223409
0.0589566
0.222471
0.0640037
0.22155
0.0692552
0.220682
0.0747437
0.219909
0.0805012
0.219289
0.0865588
0.218891
0.092943
0.218806
0.0996732
0.219152
0.106757
0.220078
0.114183
0.221762
0.121921
0.224407
0.129915
0.228258
0.138069
0.233572
0.14624
0.240641
0.154194
0.249762
0.161651
0.261131
0.168338
0.274865
0.173866
0.29117
0.177891
0.179555
0.309866
0.234335
0.0104527
0.234493
0.0163318
0.234494
0.02163
0.234352
0.0266348
0.234088
0.0314465
0.233723
0.0361404
0.233273
0.0407783
0.232755
0.0454119
0.232189
0.0500859
0.2316
0.054839
0.231013
0.0597058
0.230456
0.0647177
0.229965
0.0699039
0.229582
0.07529
0.229356
0.0808982
0.22935
0.086747
0.229641
0.0928477
0.230324
0.0992016
0.231514
0.105795
0.233349
0.112598
0.235979
0.119562
0.239577
0.126605
0.24435
0.133608
0.250503
0.140407
0.258217
0.146795
0.267628
0.152553
0.278803
0.157462
0.291694
0.161239
0.306173
0.163631
0.163889
0.321991
0.240064
0.0106586
0.240318
0.0166023
0.240438
0.0219578
0.24044
0.0270153
0.240346
0.0318731
0.240174
0.0366032
0.239942
0.0412657
0.239672
0.0459107
0.239384
0.0505803
0.239108
0.0553096
0.23887
0.0601284
0.238705
0.0650639
0.23865
0.0701397
0.238752
0.0753737
0.239065
0.0807784
0.239654
0.0863609
0.240598
0.0921196
0.241986
0.0980419
0.243921
0.104103
0.24652
0.110258
0.249921
0.116436
0.25427
0.122541
0.259729
0.128451
0.266423
0.134024
0.274423
0.139095
0.283776
0.14349
0.294474
0.147033
0.306415
0.149537
0.319434
0.150813
0.150162
0.333306
0.245935
0.0108173
0.24629
0.0167966
0.246537
0.0221832
0.246692
0.0272675
0.246776
0.0321453
0.246808
0.0368853
0.246806
0.041545
0.246793
0.046173
0.246794
0.0508083
0.246838
0.0554813
0.246959
0.0602169
0.247189
0.0650377
0.247568
0.0699626
0.248148
0.0750015
0.248983
0.0801576
0.250135
0.08543
0.251675
0.0908101
0.253683
0.0962741
0.256257
0.101781
0.259505
0.107273
0.263543
0.112674
0.268478
0.117892
0.2744
0.122824
0.281371
0.127349
0.289418
0.131331
0.298542
0.134635
0.308693
0.137129
0.319761
0.138688
0.331575
0.139184
0.138008
0.343867
0.251951
0.0109255
0.252412
0.0169102
0.252792
0.0223005
0.253107
0.0273851
0.253377
0.0322562
0.253621
0.0369791
0.253858
0.0416085
0.254108
0.0461912
0.254402
0.0507631
0.254774
0.0553488
0.255255
0.0599682
0.255879
0.0646398
0.256683
0.0693797
0.257724
0.0741886
0.25905
0.0790641
0.260713
0.0840017
0.262785
0.0889791
0.265345
0.0939618
0.268484
0.0989018
0.272285
0.103741
0.276824
0.108412
0.282166
0.112833
0.28836
0.116913
0.295439
0.120549
0.303401
0.123636
0.312215
0.126072
0.321809
0.127763
0.332071
0.128629
0.342836
0.128594
0.127138
0.353839
0.258113
0.0109802
0.258685
0.0169391
0.259204
0.0223051
0.259685
0.0273627
0.260147
0.0322004
0.26061
0.0368791
0.261091
0.041451
0.261607
0.0459615
0.262194
0.0504421
0.262894
0.0549114
0.263736
0.0593841
0.264743
0.063879
0.26595
0.0684085
0.267423
0.072962
0.269204
0.0775329
0.271336
0.0821123
0.273899
0.0866672
0.276959
0.0911601
0.280578
0.0955486
0.284813
0.0997791
0.289713
0.103787
0.295321
0.107501
0.301663
0.110844
0.308743
0.113734
0.31654
0.116091
0.325004
0.117843
0.334056
0.118925
0.343586
0.11929
0.353448
0.118897
0.117303
0.363411
0.264425
0.0109789
0.265112
0.0168804
0.265773
0.0221936
0.266423
0.0271968
0.267083
0.0319738
0.267773
0.0365815
0.268501
0.0410711
0.269275
0.0454857
0.270148
0.0498478
0.271173
0.0541726
0.272368
0.0584754
0.273742
0.0627714
0.275334
0.0670643
0.277216
0.0713401
0.279424
0.075589
0.281997
0.0797943
0.285
0.0839257
0.288479
0.0879484
0.292478
0.0918194
0.297041
0.0954888
0.3022
0.0989006
0.307976
0.101994
0.314376
0.104707
0.321385
0.106977
0.328971
0.108745
0.337074
0.109962
0.345617
0.110586
0.354496
0.110591
0.363589
0.109962
0.108319
0.372699
0.27089
0.0109198
0.271693
0.0167318
0.272498
0.0219636
0.27332
0.0268851
0.274178
0.0315753
0.275092
0.0360885
0.276064
0.0404734
0.277097
0.0447651
0.278256
0.0489807
0.2796
0.0531375
0.281131
0.0572508
0.282859
0.0613271
0.284829
0.0653621
0.287096
0.0693455
0.289694
0.0732655
0.292657
0.0771009
0.29603
0.0808233
0.299851
0.084399
0.304154
0.0877886
0.308966
0.0909484
0.314304
0.0938307
0.320173
0.0963866
0.326567
0.098567
0.33346
0.100326
0.340811
0.101622
0.348562
0.102423
0.356636
0.102704
0.364944
0.102457
0.373381
0.101678
0.10004
0.381781
0.27751
0.0108014
0.278431
0.016492
0.279382
0.0216141
0.280375
0.0264274
0.281427
0.0310057
0.282555
0.0354013
0.283767
0.0396565
0.285074
0.0437984
0.286528
0.0478455
0.288174
0.0518158
0.290022
0.0557203
0.29209
0.0595601
0.294412
0.0633287
0.297028
0.0670159
0.299969
0.0706074
0.303268
0.0740823
0.306955
0.0774138
0.311059
0.0805711
0.315602
0.0835197
0.320597
0.0862224
0.326051
0.0886404
0.331959
0.0907349
0.338303
0.0924693
0.345052
0.0938104
0.352163
0.0947309
0.359578
0.095211
0.367228
0.0952397
0.375034
0.0948168
0.38291
0.0939489
0.0923521
0.390717
0.284288
0.0106228
0.285328
0.0161605
0.286424
0.0211449
0.287588
0.0258238
0.288832
0.0302659
0.290173
0.0345187
0.291624
0.0386193
0.293203
0.042592
0.294943
0.0464548
0.296877
0.0502227
0.299024
0.0539034
0.301404
0.0574959
0.304045
0.0609931
0.306975
0.064384
0.310223
0.0676536
0.313811
0.0707821
0.317763
0.0737455
0.322098
0.0765166
0.326826
0.0790661
0.331953
0.0813635
0.337475
0.083378
0.343381
0.0850802
0.349646
0.0864436
0.356238
0.0874457
0.363112
0.0880695
0.370214
0.088305
0.377483
0.0881497
0.384852
0.0876098
0.392247
0.0866969
0.0851633
0.399554
0.291229
0.0103829
0.292387
0.0157371
0.293628
0.0205564
0.29496
0.0250757
0.296395
0.0293576
0.297948
0.0334448
0.299634
0.0373703
0.301469
0.0411566
0.303478
0.0448201
0.305687
0.0483726
0.308115
0.0518195
0.310783
0.0551588
0.313712
0.0583834
0.316925
0.0614822
0.320441
0.0644406
0.324278
0.0672408
0.328451
0.0698616
0.33297
0.0722801
0.33784
0.0744721
0.343057
0.0764133
0.348612
0.0780803
0.354488
0.0794515
0.360658
0.0805087
0.367087
0.0812377
0.373734
0.0816294
0.380549
0.0816807
0.387478
0.0813948
0.394464
0.0807815
0.401447
0.0798549
0.0783985
0.408328
0.298336
0.0100815
0.29961
0.0152225
0.300993
0.0198504
0.302492
0.0241856
0.304115
0.0282846
0.305875
0.0321858
0.307785
0.0359184
0.309863
0.0395031
0.312125
0.0429544
0.314593
0.0462816
0.317285
0.0494885
0.320217
0.0525726
0.323406
0.0555271
0.326868
0.0583416
0.330618
0.0610027
0.334667
0.0634948
0.339023
0.0658
0.34369
0.0678994
0.348665
0.0697739
0.35394
0.0714046
0.359502
0.0727744
0.365329
0.0738684
0.371394
0.0746749
0.377663
0.0751859
0.384097
0.0753981
0.390652
0.0753132
0.39728
0.0749379
0.403933
0.0742842
0.410559
0.0733668
0.071996
0.417078
0.305611
0.0097187
0.307
0.0146181
0.308523
0.0190293
0.310183
0.0231574
0.311989
0.0270526
0.313949
0.0307491
0.316075
0.0342731
0.318381
0.0376432
0.320882
0.040872
0.323592
0.043967
0.326526
0.0469306
0.329698
0.0497606
0.33312
0.0524505
0.336804
0.0549912
0.340757
0.0573709
0.344985
0.0595765
0.349492
0.0615932
0.354275
0.0634061
0.359327
0.0650004
0.364636
0.0663623
0.370186
0.0674798
0.375954
0.0683432
0.381912
0.0689459
0.388028
0.0692847
0.394266
0.0693604
0.400586
0.0691776
0.406948
0.0687453
0.41331
0.0680761
0.41963
0.0671848
0.065905
0.425838
0.313058
0.00929505
0.314559
0.0139257
0.316218
0.0180963
0.318036
0.0219956
0.320017
0.0256678
0.322169
0.0291431
0.324501
0.0324448
0.327023
0.0355893
0.329745
0.0385875
0.33268
0.0414457
0.335837
0.0441655
0.339227
0.0467448
0.342858
0.049178
0.346736
0.0514572
0.350864
0.0535727
0.355245
0.0555136
0.359875
0.0572684
0.364749
0.0588256
0.369857
0.0601742
0.375183
0.0613048
0.380709
0.0622093
0.386413
0.0628823
0.392266
0.063321
0.398239
0.0635257
0.404299
0.0634997
0.410411
0.0632497
0.41654
0.0627856
0.422649
0.0621201
0.428705
0.0612674
0.0600817
0.434647
0.320682
0.00881136
0.322292
0.013148
0.324083
0.0170554
0.326052
0.0207058
0.328202
0.0241374
0.330537
0.0273767
0.333062
0.0304441
0.335786
0.033354
0.338716
0.0361158
0.341858
0.0387347
0.34522
0.041212
0.348808
0.0435458
0.352625
0.0457316
0.356674
0.0477628
0.360955
0.0496316
0.365464
0.0513295
0.370197
0.0528478
0.375143
0.0541779
0.38029
0.0553122
0.385622
0.0562446
0.391118
0.0569706
0.396756
0.0574876
0.402511
0.0577959
0.408354
0.0578978
0.414255
0.0577985
0.420183
0.0575058
0.426109
0.0570298
0.432002
0.0563828
0.437831
0.055578
0.0544879
0.443546
0.328486
0.00826863
0.330202
0.0122874
0.332119
0.0159107
0.334234
0.0192936
0.336545
0.0224688
0.339053
0.0254589
0.341762
0.0282817
0.344676
0.0309496
0.347797
0.0334709
0.351131
0.0358497
0.354681
0.0380874
0.358447
0.0401823
0.362432
0.0421308
0.366633
0.0439279
0.371047
0.0455674
0.375667
0.0470431
0.380486
0.0483485
0.38549
0.0494777
0.390667
0.050426
0.395997
0.0511896
0.401462
0.0517668
0.407039
0.0521573
0.412704
0.0523631
0.41843
0.0523883