/*--------------------------------*- C++ -*----------------------------------*\
| =========                 |                                                 |
| \\      /  F ield         | OpenFOAM: The Open Source CFD Toolbox           |
|  \\    /   O peration     | Version:  4.1                                   |
|   \\  /    A nd           | Web:      www.OpenFOAM.org                      |
|    \\/     M anipulation  |                                                 |
\*---------------------------------------------------------------------------*/
FoamFile
{
    version     2.0;
    format      ascii;
    class       volVectorField;
    location    "2.9";
    object      U;
}
// * * * * * * * * * * * * * * * * * * * * * * * * * * * * * * * * * * * * * //

dimensions      [0 1 -1 0 0 0 0];

internalField   nonuniform List<vector> 
2790
(
(9.94447 0 0.0208232)
(9.86461 0 0.0290932)
(9.75439 -2.94251e-20 0.0347234)
(9.62386 -6.09177e-20 0.0405477)
(9.47745 3.13598e-20 0.0465554)
(9.31538 0 0.0526594)
(9.13721 -3.37091e-20 0.0589929)
(8.9427 0 0.0657159)
(8.7315 -3.63502e-20 0.0729494)
(8.50303 0 0.0808017)
(8.25655 0 0.0893824)
(7.99115 -1.28837e-21 0.0988048)
(7.70581 0 0.109189)
(7.39939 2.26404e-20 0.120662)
(7.07072 0 0.133365)
(6.71861 -4.04718e-19 0.147425)
(6.34185 4.21471e-19 0.162949)
(5.93935 0 0.180037)
(5.51033 0 0.198755)
(5.05431 0 0.219097)
(4.57135 -2.72517e-19 0.24095)
(4.06229 -2.92507e-19 0.26406)
(3.52901 0 0.28797)
(2.97477 6.81183e-19 0.311908)
(2.40448 0 0.334579)
(1.82537 0 0.35367)
(1.24791 0 0.364442)
(0.687287 0 0.35343)
(0.163218 0 0.258872)
(-0.18178 -1.80848e-17 -0.389305)
(10.0062 0 0.0410114)
(9.98425 5.70184e-20 0.0606381)
(9.93449 -1.16662e-19 0.0752106)
(9.86273 1.2005e-19 0.0905466)
(9.77225 0 0.106689)
(9.66348 -2.55371e-19 0.123391)
(9.53621 4.94033e-19 0.140927)
(9.39035 7.05681e-20 0.159659)
(9.22562 -4.57794e-19 0.179867)
(9.04154 2.53949e-19 0.201804)
(8.83742 0 0.225724)
(8.61243 1.23244e-21 0.251889)
(8.36556 -2.05225e-20 0.280567)
(8.09569 -7.12591e-19 0.312023)
(7.80166 7.12934e-19 0.34653)
(7.48229 -1.61013e-18 0.384339)
(7.13624 1.56955e-18 0.425595)
(6.76229 -2.07752e-19 0.470347)
(6.35947 0 0.51853)
(5.92703 1.87238e-18 0.569839)
(5.46462 -5.68336e-18 0.623625)
(4.97252 2.06713e-19 0.678762)
(4.45187 8.95215e-18 0.733518)
(3.90504 -5.46068e-19 0.785357)
(3.33579 -6.39713e-18 0.830442)
(2.74973 1.38052e-18 0.862737)
(2.15485 -1.48885e-18 0.872033)
(1.56213 1.28888e-17 0.838382)
(0.947075 -1.38661e-17 0.723435)
(0.598688 -3.67944e-17 0.417613)
(10.0034 0 0.0428403)
(9.97896 0 0.0721216)
(9.93184 -1.16253e-19 0.09682)
(9.86529 -3.58578e-19 0.122351)
(9.78139 0 0.149168)
(9.68061 -1.0812e-21 0.177116)
(9.56298 4.5678e-19 0.206577)
(9.42853 -3.35493e-19 0.238064)
(9.27708 4.90037e-19 0.272008)
(9.10824 -1.1882e-18 0.308821)
(8.92148 6.3073e-19 0.348928)
(8.7161 6.23259e-19 0.39277)
(8.49123 -6.39407e-19 0.44082)
(8.24582 0 0.493523)
(7.97877 -8.71008e-20 0.551326)
(7.68907 9.1189e-20 0.614716)
(7.3754 1.90122e-19 0.684025)
(7.03638 1.99834e-19 0.759384)
(6.67087 0 0.840767)
(6.27777 4.39339e-19 0.927821)
(5.8561 0 1.01966)
(5.40519 0 1.11466)
(4.9246 8.34713e-18 1.21013)
(4.41467 -8.75186e-18 1.30221)
(3.87628 1.1726e-18 1.38517)
(3.31025 -1.25105e-18 1.45025)
(2.71643 1.33973e-18 1.48412)
(2.09305 2.8751e-18 1.46562)
(1.38826 3.11703e-18 1.37299)
(0.819289 1.09647e-17 1.14278)
(10.0017 5.55415e-20 0.0482207)
(9.97499 -5.65302e-20 0.0884862)
(9.92775 3.48379e-19 0.124393)
(9.86244 1.1944e-19 0.160209)
(9.78034 0 0.197078)
(9.68179 -1.27082e-19 0.235291)
(9.56694 2.57955e-19 0.275424)
(9.43606 5.36594e-19 0.318127)
(9.28906 -6.86059e-19 0.363993)
(9.12573 7.1243e-20 0.413602)
(8.94579 -1.22205e-18 0.467544)
(8.74873 2.46003e-18 0.526439)
(8.53393 -1.23777e-18 0.590969)
(8.30067 8.19535e-20 0.661782)
(8.04795 8.54876e-20 0.739469)
(7.77501 0 0.824716)
(7.48106 -3.3549e-18 0.918142)
(7.16484 3.07077e-18 1.02007)
(6.8252 4.02761e-19 1.13062)
(6.46108 -7.23532e-18 1.24959)
(6.07118 1.32959e-17 1.37616)
(5.65427 -7.39448e-18 1.50871)
(5.20851 0 1.6442)
(4.73204 0 1.77812)
(4.22273 2.17044e-18 1.90417)
(3.67658 0 2.0131)
(3.08641 -2.44974e-18 2.09193)
(2.44362 -2.64009e-18 2.12239)
(1.69373 -1.42926e-18 2.09325)
(1.00172 -6.57334e-18 1.96367)
(10.001 -5.53838e-20 0.0550485)
(9.97288 5.63293e-20 0.104674)
(9.92541 0 0.150397)
(9.86122 0 0.195546)
(9.78091 -2.42834e-19 0.241735)
(9.68448 -2.49979e-19 0.289717)
(9.57214 -5.16106e-19 0.340198)
(9.44427 1.19056e-18 0.393874)
(9.30085 -4.06322e-19 0.451434)
(9.14176 0 0.51357)
(8.96682 0 0.580986)
(8.77565 -5.63008e-20 0.654435)
(8.56776 1.26182e-18 0.734737)
(8.34274 -1.2814e-18 0.822725)
(8.09977 0 0.91912)
(7.8381 1.7303e-19 1.02467)
(7.55735 1.80769e-19 1.14021)
(7.25661 0 1.26634)
(6.93481 5.51375e-18 1.40336)
(6.59089 -6.47349e-18 1.55126)
(6.22345 8.53045e-19 1.70948)
(5.83095 0 1.87676)
(5.41091 0 2.05041)
(4.95957 1.56761e-17 2.22594)
(4.4723 -1.83468e-17 2.3973)
(3.94225 0 2.55622)
(3.35849 2.28915e-18 2.69146)
(2.71073 -3.89515e-17 2.78723)
(1.95429 4.14242e-17 2.83146)
(1.18334 0 2.79488)
(10.0008 0 0.0625385)
(9.97189 -1.12595e-19 0.120882)
(9.92452 1.14733e-19 0.175952)
(9.86184 0 0.230347)
(9.78366 2.41764e-19 0.285853)
(9.68967 2.47605e-19 0.343549)
(9.58027 0 0.404236)
(9.45585 -1.31154e-19 0.468639)
(9.31645 0 0.537533)
(9.16201 1.2562e-18 0.611727)
(8.99239 -1.14032e-18 0.692049)
(8.80722 3.70435e-20 0.779376)
(8.60612 -4.24015e-23 0.874634)
(8.38876 -7.91747e-20 0.978804)
(8.15464 2.55175e-18 1.09279)
(7.90301 -1.34507e-19 1.21741)
(7.63344 2.86402e-18 1.35361)
(7.34531 -5.7877e-18 1.50228)
(7.0377 6.84284e-18 1.66398)
(6.70946 -5.45971e-18 1.83896)
(6.35908 -8.12346e-19 2.02697)
(5.9847 8.44944e-19 2.22721)
(5.58359 1.42357e-17 2.43791)
(5.15098 -1.3768e-17 2.65532)
(4.68036 -1.55032e-17 2.87394)
(4.16348 1.40752e-17 3.08666)
(3.58811 0 3.28348)
(2.94328 0 3.44912)
(2.20036 -9.02018e-19 3.56133)
(1.37115 -1.33311e-18 3.59868)
(10.0008 0 0.0703099)
(9.97166 4.46966e-19 0.137056)
(9.92486 2.27638e-19 0.200966)
(9.86399 7.0131e-19 0.264245)
(9.78821 4.79125e-19 0.328788)
(9.69703 -2.46281e-19 0.395863)
(9.59102 0 0.466357)
(9.4706 -1.04199e-18 0.541055)
(9.33585 2.5615e-19 0.620822)
(9.18676 2.05733e-18 0.706594)
(9.02318 -2.25973e-18 0.799328)
(8.84478 1.15773e-18 0.9)
(8.65122 -9.39828e-21 1.00963)
(8.44214 2.47251e-18 1.12929)
(8.21728 -2.38205e-18 1.26003)
(7.97596 1.64495e-19 1.40285)
(7.71759 0 1.55877)
(7.44165 5.68317e-18 1.72889)
(7.14725 -2.94012e-19 1.91415)
(6.83323 -6.77119e-18 2.11516)
(6.49787 -1.10378e-17 2.33202)
(6.13881 1.20922e-17 2.56446)
(5.75304 1.43689e-17 2.81171)
(5.33551 -2.88197e-17 3.07134)
(4.87875 1.44544e-17 3.33874)
(4.37341 1.90248e-18 3.60753)
(3.80694 0 3.86788)
(3.16634 -3.32108e-17 4.10374)
(2.44218 3.44063e-17 4.27774)
(1.5641 1.23518e-18 4.37063)
(10.0009 -1.09561e-19 0.0781357)
(9.97203 3.31698e-19 0.153015)
(9.92625 2.25903e-19 0.22529)
(9.86735 -1.25467e-21 0.297063)
(9.79423 -9.52579e-19 0.370343)
(9.70628 0 0.446474)
(9.60416 -2.49636e-19 0.52639)
(9.48832 -2.5606e-19 0.610956)
(9.35886 -5.26692e-19 0.701139)
(9.21577 -1.08767e-18 0.797994)
(9.05898 1.24579e-18 0.902596)
(8.88816 2.15826e-18 1.01602)
(8.70302 -2.41558e-18 1.13938)
(8.50325 1.89965e-20 1.27382)
(8.2886 -7.82903e-20 1.42055)
(8.05842 -5.33807e-18 1.58074)
(7.8121 5.27284e-18 1.75555)
(7.54906 -5.50028e-18 1.94627)
(7.26834 5.95568e-18 2.15422)
(6.9688 -3.61305e-19 2.38048)
(6.64849 -1.28172e-17 2.6257)
(6.30453 1.30813e-17 2.89022)
(5.93346 -8.03615e-19 3.17419)
(5.53007 1.32503e-17 3.4766)
(5.08639 -1.3576e-17 3.79411)
(4.59212 0 4.12093)
(4.03431 -2.93778e-17 4.4465)
(3.39569 -2.53849e-19 4.75377)
(2.68586 3.23852e-17 4.98946)
(1.76113 -2.76457e-19 5.12748)
(10.001 0 0.08587)
(9.97283 -1.55072e-18 0.168581)
(9.92847 -6.78949e-19 0.248808)
(9.87171 4.62267e-19 0.328703)
(9.80147 -4.69989e-19 0.410375)
(9.71716 0 0.495179)
(9.61939 7.42384e-19 0.584076)
(9.50866 -1.01814e-18 0.678028)
(9.38508 2.34188e-18 0.778118)
(9.24864 -1.06245e-18 0.885504)
(9.09934 2.06371e-18 1.00136)
(8.93688 -2.0963e-18 1.12688)
(8.76104 -2.39233e-18 1.26324)
(8.57158 2.35896e-18 1.41168)
(8.36817 9.47792e-21 1.57357)
(8.15034 -5.03519e-18 1.7503)
(7.91747 5.27774e-18 1.9432)
(7.66857 0 2.15372)
(7.40281 -3.41342e-19 2.38356)
(7.11905 3.5084e-19 2.63438)
(6.81504 1.15214e-17 2.90751)
(6.48766 -1.24589e-17 3.20412)
(6.13294 3.74631e-19 3.52532)
(5.74513 1.24619e-17 3.87145)
(5.31579 -1.2707e-17 4.2407)
(4.83354 -2.63175e-17 4.62824)
(4.28462 8.26041e-20 5.02266)
(3.64502 5.58263e-17 5.40615)
(2.94008 -5.8926e-17 5.71156)
(1.96475 3.29471e-17 5.89667)
(10.0011 0 0.0934142)
(9.97397 1.76353e-18 0.183587)
(9.9314 -4.50883e-19 0.271397)
(9.87695 -4.62214e-19 0.359065)
(9.80983 9.37705e-19 0.448728)
(9.72953 -4.78476e-19 0.54175)
(9.63661 -1.47548e-18 0.639137)
(9.53155 1.25112e-18 0.741958)
(9.41443 1.03147e-18 0.851412)
(9.28528 -1.04739e-18 0.968741)
(9.14414 0 1.09521)
(8.99075 2.75012e-19 1.23208)
(8.82499 -2.13146e-18 1.38064)
(8.64674 2.30675e-18 1.54223)
(8.45555 -9.31696e-21 1.71832)
(8.25125 -1.89227e-20 1.91057)
(8.03325 4.85602e-18 2.12061)
(7.80012 -1.02143e-17 2.35004)
(7.55115 1.57066e-17 2.60092)
(7.28522 -1.08114e-17 2.87549)
(6.99984 0 3.17589)
(6.69172 0 3.50431)
(6.35649 -3.59512e-19 3.86309)
(5.98781 0 4.25404)
(5.57647 -1.19999e-17 4.67719)
(5.10957 3.64274e-17 5.12936)
(4.57177 -2.50378e-17 5.59922)
(3.92994 2.52857e-17 6.06918)
(3.21927 -2.68533e-17 6.46159)
(2.18317 0 6.71125)
(10.0013 8.61615e-19 0.100691)
(9.97533 2.1671e-19 0.197911)
(9.93476 -2.23091e-19 0.292949)
(9.8829 4.57153e-19 0.38804)
(9.81917 -4.64136e-19 0.485247)
(9.74324 4.75972e-19 0.585969)
(9.65561 9.73903e-19 0.691306)
(9.55669 5.01761e-19 0.802444)
(9.44654 -1.00992e-18 0.920686)
(9.32528 0 1.04734)
(9.19292 2.64023e-19 1.18372)
(9.04928 -1.87835e-21 1.33118)
(8.89443 0 1.49107)
(8.72828 4.55096e-18 1.66483)
(8.55044 4.27623e-20 1.8541)
(8.36076 -4.68972e-18 2.06071)
(8.15877 0 2.28664)
(7.94324 0 2.53387)
(7.7133 0 2.80464)
(7.46768 1.61069e-19 3.10179)
(7.20407 -2.01589e-20 3.42844)
(6.91893 8.18333e-20 3.78792)
(6.60767 0 4.184)
(6.26365 0 4.6204)
(5.87674 8.70721e-20 5.0996)
(5.43208 2.16382e-17 5.62135)
(4.91164 -2.19962e-17 6.17646)
(4.27084 -2.38903e-17 6.74989)
(3.54638 2.4225e-17 7.25851)
(2.4323 0 7.61156)
(10.0018 -7.52707e-19 0.107629)
(9.9768 -9.82309e-19 0.211507)
(9.93829 -4.41486e-19 0.313368)
(9.88938 -4.51694e-19 0.415485)
(9.82938 9.20961e-19 0.519768)
(9.75813 -9.44098e-19 0.627643)
(9.67614 4.78473e-19 0.740361)
(9.5837 -1.47461e-18 0.859246)
(9.48089 4.98059e-19 0.985657)
(9.36797 0 1.12094)
(9.24492 -2.61297e-19 1.26648)
(9.11176 -2.6665e-18 1.42367)
(8.96869 2.16038e-18 1.59393)
(8.81552 -4.44305e-18 1.77883)
(8.65207 4.21065e-18 1.98014)
(8.47822 1.42737e-19 2.19985)
(8.29339 -1.45171e-19 2.4402)
(8.09718 1.47484e-19 2.70365)
(7.8886 0 2.99279)
(7.66603 1.51563e-19 3.31084)
(7.42761 1.95028e-20 3.66199)
(7.17014 2.30185e-19 4.05098)
(6.88894 -3.10923e-19 4.4831)
(6.5771 1.01251e-17 4.96425)
(6.22424 -9.5334e-18 5.50054)
(5.81359 2.03629e-17 6.09659)
(5.32368 -4.03807e-17 6.74892)
(4.69627 2.2151e-17 7.4503)
(3.95887 2.12946e-17 8.12138)
(2.74201 -2.2563e-17 8.65589)
(10.0025 9.59314e-19 0.114177)
(9.97839 -1.08196e-19 0.224361)
(9.94196 4.41961e-19 0.332573)
(9.8963 1.34503e-18 0.441236)
(9.84043 -9.17089e-19 0.552116)
(9.7742 -9.34983e-19 0.666606)
(9.69813 -3.20908e-21 0.786137)
(9.61247 9.65248e-19 0.912184)
(9.51737 9.86543e-19 1.04612)
(9.41314 0 1.1893)
(9.29986 0 1.34315)
(9.17783 2.3556e-18 1.50912)
(9.0472 -2.48415e-19 1.68871)
(8.90776 -6.48889e-18 1.88359)
(8.75962 4.65164e-18 2.09567)
(8.60268 -1.4016e-19 2.32709)
(8.4364 1.4223e-19 2.58021)
(8.26109 -1.44141e-19 2.85791)
(8.07594 -9.57302e-18 3.16328)
(7.8793 1.85364e-17 3.49994)
(7.66965 -8.80176e-18 3.8729)
(7.44489 -2.97909e-19 4.28844)
(7.20085 2.98341e-19 4.75358)
(6.93076 9.37979e-18 5.27656)
(6.62509 -1.80952e-17 5.86817)
(6.26657 8.73576e-18 6.54021)
(5.83119 7.91134e-18 7.30033)
(5.24701 -2.61084e-17 8.15929)
(4.52196 3.81282e-19 9.0618)
(3.17208 1.94876e-17 9.94016)
(10.0031 8.44125e-19 0.120299)
(9.98023 0 0.236417)
(9.94592 4.39104e-19 0.350499)
(9.90359 -2.22835e-18 0.465161)
(9.85218 -9.052e-19 0.582116)
(9.79128 9.25856e-19 0.702706)
(9.72132 9.44887e-19 0.828493)
(9.64261 5.59928e-21 0.96108)
(9.55558 -1.45845e-18 1.10186)
(9.46047 1.98656e-18 1.25216)
(9.35749 -2.50847e-18 1.41343)
(9.24706 2.56275e-18 1.58716)
(9.12934 -3.8963e-18 1.77497)
(9.00429 2.6272e-18 1.97859)
(8.87218 5.31575e-19 2.20001)
(8.73302 -4.8799e-18 2.4415)
(8.58678 4.36432e-18 2.70556)
(8.43391 -3.87718e-18 2.99526)
(8.27391 9.71927e-18 3.31411)
(8.10589 -4.45561e-18 3.66633)
(7.92873 -1.17128e-20 4.05742)
(7.74158 -9.43582e-18 4.49484)
(7.54182 8.83923e-18 4.98735)
(7.32426 1.07147e-18 5.54572)
(7.08186 -1.08798e-18 6.1855)
(6.80034 4.82493e-20 6.92734)
(6.45843 0 7.79549)
(5.97854 -1.01003e-18 8.83355)
(5.35277 0 10.0532)
(3.8473 1.40554e-17 11.6284)
(10.0037 -1.69252e-18 0.125958)
(9.98228 0 0.247587)
(9.95024 8.68443e-19 0.367102)
(9.91123 4.03952e-21 0.487204)
(9.8644 1.79904e-18 0.609657)
(9.80906 -9.12107e-19 0.735821)
(9.74532 -4.66093e-19 0.867314)
(9.67377 9.47487e-19 1.00578)
(9.59509 -1.43588e-18 1.15264)
(9.50947 0 1.30922)
(9.41717 4.96778e-19 1.47697)
(9.3187 2.00946e-18 1.65744)
(9.2143 -2.02924e-18 1.8523)
(9.10417 -4.64934e-18 2.06334)
(8.98863 3.63143e-18 2.29257)
(8.86806 5.28989e-19 2.54232)
(8.743 0 2.81519)
(8.61378 -4.27279e-18 3.11436)
(8.48048 7.99837e-18 3.4436)
(8.3431 -4.26354e-18 3.80748)
(8.20163 -1.06088e-18 4.21195)
(8.05655 5.31807e-19 4.665)
(7.9073 -8.23134e-18 5.17643)
(7.75226 7.10002e-18 5.75913)
(7.58947 7.73439e-18 6.43211)
(7.41346 -6.63067e-18 7.22342)
(7.21804 0 8.17363)
(6.94816 -6.24513e-18 9.36517)
(6.64821 6.14864e-18 10.9276)
(4.99311 1.66195e-19 14.085)
(-0.00668881 -7.31505e-21 -0.0108818)
(0.0670095 -1.15946e-19 -0.0476078)
(0.204626 1.13615e-19 -0.0612409)
(0.349537 0 -0.0558235)
(0.480195 2.89238e-21 -0.0423936)
(0.581544 0 -0.0275134)
(0.649432 0 -0.0143781)
(0.687664 0 -0.00435483)
(0.703222 0 0.00242969)
(0.703166 1.74124e-20 0.00647202)
(0.692865 -5.9405e-22 0.00866667)
(0.676172 -5.8484e-22 0.00951548)
(0.656031 -8.04513e-21 0.00975874)
(0.633193 -7.21768e-21 0.0107106)
(0.606063 7.14395e-21 0.0126107)
(0.573466 -1.5105e-22 0.0140606)
(0.537467 2.89048e-21 0.0139135)
(0.500812 -1.64468e-22 0.013516)
(0.46164 -2.81812e-21 0.014535)
(0.415951 0 0.015583)
(0.365198 0 0.0143358)
(0.318668 -4.36449e-21 0.0102468)
(0.288126 3.97521e-21 0.00480196)
(0.280589 0 -0.00178453)
(0.294161 0 -0.00911889)
(0.325624 0 -0.017016)
(0.37343 0 -0.0237509)
(0.436453 0 -0.0291825)
(0.512428 0 -0.033315)
(0.630907 0 -0.0356903)
(-0.00898436 -4.65724e-19 -0.0381741)
(0.0621823 1.42071e-20 -0.136427)
(0.188917 1.8868e-19 -0.167321)
(0.325504 -1.96987e-19 -0.155728)
(0.453205 -1.76766e-19 -0.12589)
(0.558213 1.75035e-19 -0.0916005)
(0.636114 -1.01006e-20 -0.0598438)
(0.68881 5.6536e-20 -0.0340068)
(0.720945 -7.49793e-20 -0.0147483)
(0.737737 -6.92813e-20 -0.000770414)
(0.743286 6.86467e-20 0.00891251)
(0.740156 0 0.0142309)
(0.731077 2.25123e-20 0.0172157)
(0.717112 -2.99006e-20 0.0213644)
(0.695299 1.38572e-20 0.0273542)
(0.665379 6.56331e-21 0.0314688)
(0.631172 -1.85969e-20 0.0325599)
(0.595857 0 0.035747)
(0.555835 0 0.0437921)
(0.506827 0 0.0501946)
(0.452653 0 0.0480029)
(0.403471 1.5107e-20 0.0335864)
(0.365818 -4.13376e-21 0.0139112)
(0.336973 -1.86527e-21 -0.00272017)
(0.309456 6.19901e-21 -0.0140966)
(0.28256 6.04092e-22 -0.0241381)
(0.270225 -4.40655e-21 -0.0342114)
(0.280241 -3.01434e-22 -0.0457953)
(0.310897 -1.64151e-22 -0.0607977)
(0.390411 0 -0.0734295)
(-0.0112231 3.66222e-21 -0.0802948)
(0.0424278 4.02994e-19 -0.221822)
(0.143889 -4.00701e-19 -0.260765)
(0.251759 -3.80391e-19 -0.241628)
(0.351247 3.62948e-19 -0.196978)
(0.43151 -1.06641e-20 -0.146011)
(0.489681 -1.2931e-19 -0.098694)
(0.527466 1.58398e-19 -0.0600344)
(0.548977 0 -0.0311024)
(0.558465 -7.02531e-20 -0.0101491)
(0.557934 6.96937e-20 0.00673197)
(0.548928 0 0.0170206)
(0.533645 0 0.0252214)
(0.511449 -2.92292e-20 0.0366196)
(0.478898 1.47458e-20 0.0508489)
(0.434611 -2.61694e-20 0.0572528)
(0.383071 1.39449e-20 0.0507605)
(0.326904 2.4415e-20 0.0506217)
(0.264676 -1.06874e-20 0.0654093)
(0.189077 2.05755e-20 0.0803385)
(0.0955748 -1.95074e-20 0.0856901)
(-0.0099893 -8.98115e-21 0.0769684)
(-0.115621 8.25007e-21 0.0587257)
(-0.215132 -7.34708e-21 0.0393255)
(-0.256922 -7.87843e-21 0.0224127)
(-0.27738 1.45494e-21 -0.00038866)
(-0.276137 4.35491e-21 -0.0304999)
(-0.248727 0 -0.0641608)
(-0.204611 3.94655e-21 -0.0969635)
(-0.146244 0 -0.119229)
(-0.0262764 0 -0.142147)
(0.00865867 -4.10881e-19 -0.299232)
(0.0880189 4.11748e-19 -0.332956)
(0.164349 -3.00293e-21 -0.302083)
(0.229882 3.56818e-19 -0.243265)
(0.277914 -7.01534e-19 -0.178594)
(0.308073 6.60191e-19 -0.119203)
(0.32281 -4.58003e-19 -0.0715427)
(0.323773 1.92789e-19 -0.0326653)
(0.316501 0 -0.003553)
(0.301652 -3.53148e-20 0.0171072)
(0.277338 0 0.0236581)
(0.237229 0 0.0264761)
(0.181427 0 0.0446718)
(0.109515 0 0.0746863)
(0.00917399 0 0.102459)
(-0.122091 0 0.114635)
(-0.305515 0 0.123084)
(-0.395976 0 0.141422)
(-0.47074 2.04797e-20 0.153837)
(-0.542612 9.49732e-21 0.152949)
(-0.606594 -1.71466e-20 0.13766)
(-0.657353 -7.91121e-21 0.107104)
(-0.692927 3.74654e-21 0.0667789)
(-0.709317 3.22569e-21 0.0248163)
(-0.711266 9.8862e-21 -0.0147313)
(-0.702297 0 -0.0525885)
(-0.689077 5.43952e-21 -0.087578)
(-0.676372 -3.48802e-21 -0.116998)
(-0.668756 -1.23284e-21 -0.137075)
(-0.061992 0 -0.219634)
(-0.0441518 0 -0.366705)
(0.0145748 -3.92009e-19 -0.382656)
(0.0555326 1.53731e-20 -0.335136)
(0.0816778 7.26668e-19 -0.262599)
(0.0907304 -3.37689e-19 -0.187421)
(0.0854514 -4.24833e-20 -0.119145)
(0.0723079 -4.10694e-20 -0.0697168)
(0.0427549 -3.94453e-20 -0.0406776)
(0.00548423 0 -0.00689693)
(-0.069597 3.68924e-20 0.0348767)
(-0.158161 0 0.0743275)
(-0.348894 0 0.10168)
(-0.484125 0 0.128865)
(-0.562443 -2.77888e-20 0.162646)
(-0.633249 5.54699e-20 0.189319)
(-0.718716 0 0.198934)
(-0.813893 2.26177e-20 0.192071)
(-0.888314 -4.33504e-20 0.186535)
(-0.948094 -1.95191e-20 0.185196)
(-0.994483 0 0.175961)
(-1.02966 8.67245e-21 0.153035)
(-1.05666 -6.68504e-21 0.116951)
(-1.07856 -1.26561e-20 0.0736644)
(-1.09558 1.08596e-20 0.0295308)
(-1.1068 -9.56172e-21 -0.0129748)
(-1.11505 -8.02259e-22 -0.0532283)
(-1.12129 -4.75792e-21 -0.0892247)
(-1.12759 1.33967e-22 -0.120036)
(-1.13278 1.08978e-21 -0.142547)
(-0.112612 0 -0.302362)
(-0.113924 -2.78781e-20 -0.416105)
(-0.0827087 -1.29997e-20 -0.404044)
(-0.0858507 0 -0.334163)
(-0.109153 2.39957e-20 -0.247923)
(-0.150716 0 -0.167428)
(-0.205562 -3.29965e-19 -0.10122)
(-0.266098 3.50281e-19 -0.0297964)
(-0.417535 0 0.0322594)
(-0.589547 0 0.0886074)
(-0.696883 0 0.139226)
(-0.76588 1.35243e-19 0.172405)
(-0.856261 -1.31854e-19 0.182081)
(-0.948467 0 0.186554)
(-1.02416 -2.78663e-20 0.20465)
(-1.08684 -2.47382e-20 0.226434)
(-1.14638 4.97698e-20 0.236596)
(-1.20756 0 0.231556)
(-1.26476 2.04439e-20 0.2218)
(-1.31387 1.82987e-20 0.211788)
(-1.35359 0 0.194957)
(-1.38626 -7.26076e-21 0.167102)
(-1.41496 2.75298e-20 0.128816)
(-1.4413 2.01744e-20 0.0842824)
(-1.46443 -1.32734e-20 0.0380666)
(-1.48272 0 -0.0069774)
(-1.50027 0 -0.0489318)
(-1.51622 0 -0.0862217)
(-1.53107 2.50787e-21 -0.118448)
(-1.54043 -1.22355e-22 -0.141827)
(-0.166712 9.82425e-19 -0.374108)
(-0.199198 4.5801e-20 -0.435737)
(-0.21298 -8.77837e-19 -0.381582)
(-0.276677 0 -0.280377)
(-0.372272 -4.04866e-19 -0.172164)
(-0.495067 3.85857e-19 -0.0749191)
(-0.659188 0 0.019237)
(-0.81751 3.75288e-19 0.100406)
(-0.913359 -3.24027e-19 0.143561)
(-1.00625 3.79678e-20 0.164996)
(-1.09023 3.58223e-20 0.188072)
(-1.16101 3.38416e-20 0.21293)
(-1.2306 -3.18764e-20 0.227152)
(-1.30131 -2.97696e-20 0.23406)
(-1.3664 0 0.245736)
(-1.42305 -2.53316e-20 0.259554)
(-1.47513 -2.35089e-20 0.266183)
(-1.52759 2.14217e-20 0.262216)
(-1.57988 1.86961e-20 0.252025)
(-1.62864 -3.61265e-20 0.237737)
(-1.67219 -1.53965e-20 0.216228)
(-1.71115 0 0.185039)
(-1.74659 -1.18752e-20 0.144666)
(-1.7788 -1.61134e-20 0.0982596)
(-1.80707 4.9044e-21 0.0498702)
(-1.83083 6.77577e-21 0.00291549)
(-1.85441 -6.26119e-21 -0.0404638)
(-1.87716 7.55008e-21 -0.0790989)
(-1.89787 -1.97253e-21 -0.112365)
(-1.90965 0 -0.135752)
(-0.220955 -7.73267e-21 -0.412075)
(-0.303139 -5.89587e-20 -0.400094)
(-0.39182 0 -0.28351)
(-0.538878 8.46152e-19 -0.149588)
(-0.71454 -8.55207e-19 -0.0249278)
(-0.895308 0 0.0771998)
(-1.02721 0 0.136086)
(-1.13051 4.23528e-20 0.172429)
(-1.22448 3.10851e-19 0.201148)
(-1.31047 -3.39246e-19 0.222517)
(-1.38756 -3.47922e-20 0.240103)
(-1.45531 -6.64289e-20 0.256231)
(-1.51884 3.10009e-20 0.267419)
(-1.58144 5.84185e-20 0.275038)
(-1.64126 0 0.284057)
(-1.69678 2.51063e-20 0.293142)
(-1.74997 2.29021e-20 0.297076)
(-1.80394 -2.07106e-22 0.293306)
(-1.85882 0 0.282996)
(-1.91233 0 0.266455)
(-1.9626 8.40707e-22 0.241782)
(-2.00901 -1.22274e-20 0.207545)
(-2.05147 2.70964e-20 0.164435)
(-2.0898 -9.34851e-21 0.115369)
(-2.12377 4.2336e-21 0.064461)
(-2.15372 4.28493e-21 0.0155436)
(-2.18134 4.96306e-21 -0.0292177)
(-2.21003 -6.87961e-21 -0.0690119)
(-2.23556 2.66722e-22 -0.103036)
(-2.24919 0 -0.126229)
(-0.279154 4.21999e-21 -0.386425)
(-0.432939 3.01502e-20 -0.279259)
(-0.60839 9.24813e-19 -0.115387)
(-0.821609 -9.02942e-19 0.0398337)
(-1.00348 -5.93482e-22 0.139471)
(-1.14141 4.83194e-20 0.190007)
(-1.26409 4.49578e-20 0.224488)
(-1.37178 -4.13654e-20 0.249209)
(-1.46706 3.96548e-20 0.266923)
(-1.55161 0 0.279991)
(-1.6264 -1.38032e-19 0.290769)
(-1.69295 1.67403e-19 0.30021)
(-1.75492 1.21839e-19 0.307594)
(-1.81538 -9.12272e-20 0.31409)
(-1.87452 -8.24295e-20 0.321546)
(-1.93227 2.30168e-20 0.328506)
(-1.98995 -4.65364e-20 0.331428)
(-2.04903 -2.01762e-20 0.327967)
(-2.10936 -3.42086e-20 0.317547)
(-2.16919 1.91711e-21 0.299393)
(-2.22667 1.56541e-20 0.272044)
(-2.28062 1.35123e-20 0.234741)
(-2.33039 -1.45619e-20 0.188523)
(-2.37554 -4.307e-21 0.136387)
(-2.41581 -9.457e-21 0.0825656)
(-2.45153 -1.89087e-20 0.0311621)
(-2.4838 -1.63601e-21 -0.0152621)
(-2.51791 3.28175e-21 -0.056096)
(-2.54775 6.58424e-22 -0.090848)
(-2.56294 0 -0.114005)
(-0.345917 1.1083e-18 -0.27039)
(-0.573418 -1.04884e-18 -0.0831642)
(-0.814839 -9.51695e-19 0.122532)
(-1.01146 1.20139e-20 0.221957)
(-1.1821 8.17551e-19 0.272488)
(-1.3313 -9.51155e-20 0.302344)
(-1.46053 -4.40452e-20 0.319657)
(-1.572 0 0.32945)
(-1.66856 -3.87689e-19 0.334792)
(-1.75255 3.01099e-19 0.337914)
(-1.82631 0 0.340871)
(-1.8927 0 0.34452)
(-1.95496 0 0.348764)
(-2.01599 5.65829e-20 0.354113)
(-2.07688 2.3187e-20 0.36081)
(-2.13826 -9.75609e-20 0.367124)
(-2.20119 8.76151e-20 0.370041)
(-2.26627 -2.26108e-20 0.367027)
(-2.33292 1.48631e-20 0.356472)
(-2.39963 -1.54069e-20 0.336948)
(-2.46468 -1.09522e-20 0.30716)
(-2.5266 2.1245e-20 0.266781)
(-2.58433 8.57066e-21 0.217182)
(-2.637 -2.66539e-21 0.161538)
(-2.68404 2.04677e-20 0.104263)
(-2.72582 7.11379e-21 0.0498859)
(-2.76424 6.30731e-22 0.00146586)
(-2.80202 -2.31789e-21 -0.0405543)
(-2.83587 3.30123e-22 -0.0759348)
(-2.85231 0 -0.0992605)
(-0.419939 -1.20422e-18 -0.060196)
(-0.691594 0 0.221958)
(-0.92983 1.51985e-20 0.338687)
(-1.14864 4.32088e-19 0.396098)
(-1.33827 -3.66681e-19 0.418492)
(-1.49798 4.68933e-20 0.422549)
(-1.63148 0 0.418529)
(-1.7442 3.25603e-19 0.411338)
(-1.84047 -2.77977e-19 0.403265)
(-1.92343 0 0.396027)
(-1.99616 0 0.391287)
(-2.06226 -1.31104e-19 0.38983)
(-2.12507 1.91534e-19 0.391548)
(-2.18738 -5.68288e-20 0.396183)
(-2.25075 5.54797e-20 0.4029)
(-2.31601 -4.90266e-20 0.409571)
(-2.384 4.07076e-20 0.413182)
(-2.45495 -5.72698e-20 0.410857)
(-2.52808 1.70876e-20 0.400304)
(-2.60195 0 0.379685)
(-2.67489 0 0.347753)
(-2.74532 0 0.304429)
(-2.81181 -2.53014e-21 0.251329)
(-2.87301 2.50009e-21 0.19182)
(-2.92783 -1.03508e-20 0.130543)
(-2.97633 -2.37947e-22 0.0724385)
(-3.02039 2.35291e-22 0.0211294)
(-3.06215 -2.76009e-22 -0.0224771)
(-3.09921 -9.21874e-22 -0.058471)
(-3.11681 -1.44382e-21 -0.0821984)
(-0.447951 -3.64493e-21 0.321351)
(-0.729732 0 0.500353)
(-1.02706 -1.47634e-20 0.577735)
(-1.2813 -2.54575e-20 0.592607)
(-1.48774 3.85218e-19 0.574702)
(-1.65182 -3.73972e-19 0.545948)
(-1.78385 0 0.517713)
(-1.89352 2.80944e-19 0.492747)
(-1.98668 -3.12883e-19 0.471094)
(-2.06694 -1.46509e-19 0.453584)
(-2.13752 1.42849e-19 0.441633)
(-2.20226 3.40796e-20 0.435862)
(-2.26485 -6.2705e-20 0.435784)
(-2.32797 0 0.440324)
(-2.39339 1.07063e-19 0.447812)
(-2.46206 -4.86836e-20 0.455662)
(-2.53459 4.5053e-20 0.460612)
(-2.61101 1.66008e-20 0.459375)
(-2.69049 -2.95992e-20 0.44915)
(-2.77163 1.30882e-20 0.427812)
(-2.85281 0 0.394088)
(-2.93232 0 0.347992)
(-3.00833 5.16708e-21 0.291251)
(-3.07891 -8.07706e-22 0.227367)
(-3.1423 3.80871e-21 0.161224)
(-3.19809 -1.87398e-23 0.0982436)
(-3.24833 0 0.0429324)
(-3.29554 5.27522e-21 -0.00285257)
(-3.33462 -2.25067e-22 -0.0393642)
(-3.35294 1.39958e-21 -0.0629513)
(-0.438539 4.61279e-21 0.688164)
(-0.776382 -4.46729e-19 0.846832)
(-1.14414 8.33165e-20 0.858539)
(-1.42977 2.59747e-20 0.807188)
(-1.64174 3.3391e-19 0.733209)
(-1.79757 0 0.664707)
(-1.91833 4.07281e-20 0.611753)
(-2.01872 3.97991e-20 0.570427)
(-2.10488 -3.80448e-20 0.536263)
(-2.17932 0 0.509122)
(-2.24506 0 0.490784)
(-2.30624 1.00861e-19 0.48182)
(-2.36679 -1.3124e-19 0.480979)
(-2.42927 1.1989e-19 0.48627)
(-2.49536 -1.67411e-19 0.495357)
(-2.56609 -3.52891e-21 0.505223)
(-2.64195 -6.06519e-21 0.512234)
(-2.72279 -5.68954e-20 0.512654)
(-2.8077 2.31154e-20 0.503262)
(-2.89532 -1.18066e-20 0.481714)
(-2.98408 -5.32597e-21 0.446672)
(-3.07217 1.15543e-22 0.39811)
(-3.15745 -5.0852e-21 0.337744)
(-3.23742 5.81927e-21 0.269193)
(-3.30966 -2.32219e-21 0.197667)
(-3.37325 5.36191e-22 0.12919)
(-3.4302 0 0.0692423)
(-3.4834 -4.97138e-21 0.0209022)
(-3.52765 -6.464e-21 -0.0155434)
(-3.5478 -1.5433e-22 -0.0380931)
(-0.447242 -1.07854e-18 1.19908)
(-0.864617 -4.35698e-19 1.26295)
(-1.31284 7.09501e-19 1.17289)
(-1.61536 -6.54291e-19 1.02781)
(-1.81008 3.8017e-19 0.881064)
(-1.9345 0 0.767142)
(-2.02802 -4.01199e-20 0.69408)
(-2.11125 -1.53543e-19 0.64134)
(-2.18577 3.38147e-19 0.596479)
(-2.24972 -1.84147e-19 0.560101)
(-2.30573 3.65424e-20 0.53622)
(-2.35912 0 0.525617)
(-2.41419 9.90963e-20 0.525442)
(-2.47308 -6.094e-20 0.532557)
(-2.53709 5.56676e-20 0.544202)
(-2.60715 4.92883e-20 0.557054)
(-2.68368 2.33211e-20 0.567014)
(-2.76622 4.56412e-21 0.569829)
(-2.85363 -4.6524e-20 0.561917)
(-2.94447 3.84194e-21 0.54082)
(-3.03727 6.49447e-21 0.505155)
(-3.13023 4.87442e-21 0.454741)
(-3.22102 1.17041e-21 0.391113)
(-3.3067 -3.00526e-21 0.317886)
(-3.38428 -1.49692e-20 0.240561)
(-3.45228 1.15996e-21 0.165816)
(-3.51265 1.19965e-20 0.100278)
(-3.56878 5.3202e-22 0.0485618)
(-3.61587 1.43941e-20 0.0116722)
(-3.63771 2.08874e-22 -0.0100989)
(-0.509876 2.70412e-19 1.2052)
(-1.05872 1.42551e-19 1.95238)
(-1.57221 -1.50282e-19 1.61744)
(-1.85904 0 1.29374)
(-1.999 0 1.00758)
(-2.05501 0 0.821995)
(-2.09795 0 0.745464)
(-2.15729 3.63458e-20 0.695984)
(-2.21674 0 0.644841)
(-2.26398 3.69249e-20 0.600049)
(-2.30239 -3.64828e-20 0.57257)
(-2.34114 7.16832e-20 0.563825)
(-2.38563 -1.39485e-19 0.566996)
(-2.43674 -1.26439e-19 0.577446)
(-2.49484 1.17383e-19 0.592744)
(-2.5607 -1.02528e-19 0.609587)
(-2.63458 4.14534e-21 0.623342)
(-2.71557 3.34753e-20 0.62911)
(-2.802 4.61788e-20 0.622965)
(-2.89228 0 0.602514)
(-2.98525 0 0.566458)
(-3.07958 -5.92527e-21 0.514362)
(-3.17309 0 0.447386)
(-3.26266 0 0.369043)
(-3.34478 9.97667e-21 0.2852)
(-3.41714 1.97689e-20 0.203423)
(-3.48104 -2.83255e-20 0.131812)
(-3.54021 1.40877e-20 0.0768654)
(-3.59055 -8.54296e-21 0.0403695)
(-3.61451 0 0.0201722)
(10.0044 0 0.131211)
(9.98445 -1.43085e-18 0.257986)
(9.95492 -1.04343e-18 0.382612)
(9.91943 8.48999e-19 0.507721)
(9.87739 -1.72505e-18 0.635182)
(9.82786 8.7732e-19 0.766487)
(9.77071 -1.77521e-18 0.903237)
(9.70686 1.79794e-18 1.04703)
(9.63704 4.59085e-19 1.1993)
(9.56143 -4.62223e-19 1.36144)
(9.48044 0 1.53487)
(9.39461 1.43165e-18 1.72115)
(9.30429 -2.40264e-18 1.92198)
(9.20998 4.84202e-19 2.13918)
(9.11218 0 2.37472)
(9.01163 0 2.63089)
(8.90914 0 2.91037)
(8.80528 -5.02303e-19 3.21633)
(8.70091 0 3.55263)
(8.59679 0 3.92381)
(8.49455 4.96133e-19 4.33597)
(8.39624 0 4.79695)
(8.3038 7.49627e-18 5.31649)
(8.22046 -1.42488e-19 5.90785)
(8.15207 -9.67506e-18 6.59035)
(8.10794 1.75668e-18 7.39257)
(8.11426 3.11432e-18 8.357)
(8.2039 0 9.56445)
(8.94654 -1.00091e-18 11.084)
(9.73681 0 14.2331)
(10.0052 0 0.136059)
(9.98665 1.59556e-18 0.267621)
(9.95982 0 0.396993)
(9.92819 0 0.526679)
(9.89102 1.66668e-18 0.658641)
(9.84736 4.05375e-21 0.794561)
(9.79715 8.58755e-22 0.936002)
(9.74137 1.74096e-18 1.08447)
(9.68069 -8.82471e-19 1.24143)
(9.61546 -1.34358e-18 1.40829)
(9.54619 1.8064e-18 1.58647)
(9.47343 0 1.77751)
(9.39771 4.64538e-19 1.98305)
(9.31979 -4.68656e-19 2.20488)
(9.24045 -3.75599e-18 2.44493)
(9.16065 3.29642e-18 2.7054)
(9.08138 0 2.98889)
(9.0038 -9.34724e-19 3.29848)
(8.92942 0 3.63782)
(8.85998 3.71031e-18 4.01117)
(8.79847 -8.23892e-18 4.42411)
(8.74841 4.49911e-18 4.88356)
(8.71447 -3.45865e-18 5.39803)
(8.70422 3.39646e-18 5.97854)
(8.73051 -3.93337e-18 6.64005)
(8.81419 5.96173e-20 7.40177)
(9.00016 0 8.28541)
(9.30745 0 9.31833)
(10.0354 1.03834e-18 10.4485)
(10.8621 -9.14968e-20 11.7298)
(10.006 1.42525e-18 0.140434)
(9.98887 1.4433e-18 0.276351)
(9.96494 -5.86333e-19 0.410004)
(9.9375 -3.98641e-19 0.543815)
(9.90535 4.02221e-19 0.679803)
(9.86764 -1.23647e-21 0.819773)
(9.82456 -4.39859e-21 0.965277)
(9.77704 1.57069e-21 1.11775)
(9.72575 -8.55135e-19 1.27864)
(9.67118 0 1.44936)
(9.61392 0 1.6313)
(9.55459 0 1.82595)
(9.49396 -4.40478e-19 2.03488)
(9.43287 -4.43013e-19 2.25976)
(9.37237 0 2.50243)
(9.31362 4.04096e-18 2.76497)
(9.25792 -4.4766e-18 3.04978)
(9.20695 -2.66563e-18 3.35967)
(9.16275 3.55181e-18 3.6978)
(9.1281 3.48708e-18 4.06789)
(9.10679 -1.7348e-18 4.47449)
(9.10345 -8.5146e-19 4.92297)
(9.12475 7.99936e-19 5.41953)
(9.18036 -7.64624e-19 5.97113)
(9.28488 0 6.58549)