/*--------------------------------*- C++ -*----------------------------------*\
| =========                 |                                                 |
| \\      /  F ield         | OpenFOAM: The Open Source CFD Toolbox           |
|  \\    /   O peration     | Version:  5.x                                   |
|   \\  /    A nd           | Web:      www.OpenFOAM.org                      |
|    \\/     M anipulation  |                                                 |
\*---------------------------------------------------------------------------*/
FoamFile
{
    version     2.0;
    format      ascii;
    class       surfaceVectorField;
    location    "2.9";
    object      Uf;
}
// * * * * * * * * * * * * * * * * * * * * * * * * * * * * * * * * * * * * * //

dimensions      [0 1 -1 0 0 0 0];

internalField   nonuniform List<vector> 
5457
(
(9.91058 5.51893e-20 0.0250254)
(9.97533 -3.42712e-21 0.0392163)
(9.8061 3.51661e-21 0.03196)
(9.92443 1.17358e-19 0.047296)
(9.68644 1.55452e-20 0.0376881)
(9.84444 -2.92807e-20 0.0561022)
(9.54942 -9.48502e-22 0.0436041)
(9.74329 1.65482e-19 0.0665186)
(9.39542 -1.541e-20 0.0496596)
(9.62485 -2.01138e-19 0.0773625)
(9.2251 3.44499e-20 0.0558796)
(9.48942 1.91178e-19 0.0885046)
(9.0386 -1.98879e-20 0.0624103)
(9.33671 -3.16384e-20 0.100205)
(8.83564 -5.14535e-20 0.069392)
(9.16652 1.35357e-19 0.112712)
(8.61571 0 0.0769393)
(8.97855 -1.75279e-19 0.126205)
(8.37811 0 0.0851611)
(8.77227 -1.46835e-19 0.14085)
(8.12201 6.54574e-22 0.0941689)
(8.54697 4.55815e-19 0.156816)
(7.84644 8.89806e-20 0.104079)
(8.30178 -3.1346e-19 0.174276)
(7.55034 -5.87508e-21 0.115016)
(8.03567 7.66969e-20 0.193406)
(7.23255 -1.12755e-19 0.127114)
(7.74752 -1.11428e-19 0.214387)
(6.89184 -2.28993e-19 0.140506)
(7.43617 -4.61886e-20 0.237407)
(6.52702 1.4871e-20 0.15531)
(7.10043 -2.02374e-19 0.262619)
(6.13694 2.0744e-19 0.17163)
(6.73902 -5.85613e-19 0.290112)
(5.72064 5.49892e-19 0.189547)
(6.35079 8.26123e-19 0.319924)
(5.27746 1.48664e-19 0.209093)
(5.93487 3.77044e-19 0.351997)
(4.80718 -9.30464e-19 0.230207)
(5.49065 -1.43099e-18 0.386103)
(4.31025 4.8816e-20 0.252706)
(5.01798 6.7599e-19 0.421782)
(3.788 5.73012e-19 0.276234)
(4.51742 2.69309e-18 0.458253)
(3.24305 -1.38882e-18 0.300175)
(3.99048 -1.94497e-18 0.494324)
(2.67952 1.35798e-19 0.323495)
(3.44 -1.36988e-18 0.528258)
(2.1036 -1.76853e-19 0.344388)
(2.87032 1.47017e-18 0.557447)
(1.52461 1.04219e-18 0.359317)
(2.28787 -1.61138e-18 0.57779)
(0.957006 1.64636e-18 0.359142)
(1.70194 -4.11077e-18 0.582231)
(0.426397 -3.99732e-18 0.306134)
(1.12559 1.27325e-17 0.555204)
(-0.0101084 -6.49446e-19 -0.0741403)
(0.556396 -1.08573e-17 0.447181)
(0.210195 2.24015e-18 -0.00283952)
(9.99693 6.08191e-20 0.0509857)
(10.0048 5.53698e-20 0.0405524)
(9.95791 8.19064e-20 0.0680572)
(9.98161 2.32555e-22 0.0649487)
(9.89708 1.24116e-19 0.0830164)
(9.93316 -2.92825e-20 0.0846112)
(9.81675 -4.11213e-20 0.0987589)
(9.86401 2.09912e-19 0.105503)
(9.71725 1.22071e-20 0.115183)
(9.77682 -6.25586e-20 0.12734)
(9.59904 1.21309e-19 0.132307)
(9.67204 7.98471e-22 0.149922)
(9.46231 1.26398e-19 0.150449)
(9.54959 6.44228e-20 0.173664)
(9.30688 6.39596e-21 0.169929)
(9.40944 8.67435e-20 0.199024)
(9.13234 -3.21662e-19 0.191013)
(9.25135 1.39316e-19 0.226359)
(8.9381 3.18772e-19 0.213956)
(9.07488 -4.33313e-19 0.256008)
(8.72336 1.29307e-19 0.239016)
(8.87945 4.55882e-19 0.288317)
(8.48723 -3.19523e-19 0.266456)
(8.66426 -3.14156e-19 0.323645)
(8.22863 -3.1862e-20 0.296544)
(8.42839 6.47541e-19 0.362365)
(7.94642 -4.38108e-20 0.329548)
(8.17074 -6.65647e-19 0.404839)
(7.63942 -2.20197e-20 0.365733)
(7.8902 6.48479e-20 0.451443)
(7.30634 -8.08907e-19 0.405294)
(7.58566 0 0.502548)
(6.94593 5.49088e-20 0.448326)
(7.2558 -7.96559e-19 0.558388)
(6.55707 6.46365e-19 0.494824)
(6.8993 1.02542e-18 0.619062)
(6.1389 -1.23052e-18 0.544601)
(6.51513 -1.53817e-18 0.684531)
(5.69085 2.06686e-19 0.597176)
(6.10236 -1.07773e-18 0.754452)
(5.2129 3.34994e-18 0.651661)
(5.66032 2.83589e-18 0.828037)
(4.70579 1.10297e-19 0.706626)
(5.18881 2.1119e-18 0.903871)
(4.17133 -1.91881e-18 0.75993)
(4.6882 1.45144e-18 0.979701)
(3.61271 0 0.808382)
(4.15983 -4.37646e-18 1.05222)
(3.03478 0 0.847037)
(3.60605 5.83815e-19 1.11642)
(2.4449 -6.78255e-18 0.867744)
(3.03009 0 1.16439)
(1.85398 7.04526e-18 0.855356)
(2.43593 4.03476e-18 1.18291)
(1.27698 5.87956e-18 0.778937)
(1.82824 1.3698e-17 1.14673)
(0.70908 -7.62764e-18 0.573734)
(1.1689 -2.02759e-17 1.01532)
(0.711267 5.49768e-18 0.70816)
(9.98976 -6.15921e-21 0.0577236)
(10.0025 1.33837e-22 0.0450479)
(9.95452 -1.11526e-19 0.0846951)
(9.97698 -1.1359e-19 0.0809152)
(9.8977 6.07491e-20 0.109813)
(9.92979 0 0.11128)
(9.8227 1.83715e-19 0.135993)
(9.86386 -5.9391e-20 0.141941)
(9.73037 -7.2867e-20 0.163381)
(9.78087 6.17614e-20 0.173768)
(9.62103 -5.50255e-20 0.192095)
(9.6812 -1.91047e-19 0.206785)
(9.49487 2.51426e-20 0.222582)
(9.56496 3.23605e-19 0.241509)
(9.35179 2.20519e-19 0.255314)
(9.43229 3.24924e-20 0.278544)
(9.19152 1.83413e-20 0.290712)
(9.28307 2.45879e-19 0.318397)
(9.01359 -2.8186e-19 0.329196)
(9.11698 -5.72809e-19 0.36157)
(8.81736 0 0.371198)
(8.93363 3.29617e-19 0.408571)
(8.60205 6.68345e-19 0.417175)
(8.73242 9.51637e-21 0.459933)
(8.36669 -7.02866e-21 0.467586)
(8.51258 6.67873e-19 0.516238)
(8.11024 -5.45611e-19 0.522878)
(8.27324 -2.41913e-20 0.578028)
(7.8316 8.58557e-20 0.583517)
(8.01335 -6.76239e-19 0.64583)
(7.52959 0 0.649913)
(7.73203 1.51993e-18 0.720253)
(7.20289 2.02184e-19 0.722295)
(7.42822 1.13319e-19 0.801769)
(6.85023 -1.19868e-18 0.800714)
(7.10059 -1.52945e-18 0.890592)
(6.47048 -1.37914e-18 0.884981)
(6.74801 -1.57668e-18 0.986783)
(6.0626 1.60941e-18 0.974472)
(6.3694 -2.35809e-19 1.09007)
(5.62577 1.58797e-18 1.06792)
(5.96361 1.61128e-18 1.1996)
(5.15949 3.4431e-18 1.16317)
(5.5297 0 1.31371)
(4.66382 -1.07728e-18 1.25693)
(5.06654 3.88754e-18 1.42952)
(4.13947 -3.73447e-18 1.3444)
(4.57336 -9.03682e-18 1.54274)
(3.58752 5.77776e-19 1.4183)
(4.04955 5.45906e-18 1.64715)
(3.00891 1.08208e-17 1.46754)
(3.49354 0 1.73331)
(2.40229 1.07558e-17 1.47498)
(2.9017 1.19484e-17 1.78737)
(1.7562 -1.23889e-17 1.41725)
(2.26886 6.1025e-20 1.789)
(1.02484 -6.577e-18 1.26766)
(1.54173 -1.17014e-17 1.72364)
(0.911141 2.1494e-18 1.54914)
(9.9855 -1.0919e-19 0.0686887)
(10.0013 -3.04347e-19 0.0514119)
(9.95045 0 0.106766)
(9.97394 -3.10056e-19 0.0968011)
(9.89463 -1.21194e-19 0.142619)
(9.92658 5.76297e-20 0.13749)
(9.82086 -1.79235e-19 0.178965)
(9.86183 -2.37848e-19 0.177805)
(9.73039 -6.07549e-20 0.216511)
(9.78063 1.81398e-19 0.219279)
(9.62359 1.96322e-19 0.255695)
(9.68313 -1.25596e-19 0.262359)
(9.50063 3.26132e-19 0.297128)
(9.56954 3.87428e-19 0.307668)
(9.36156 6.13495e-20 0.341434)
(9.44016 -4.61854e-19 0.355879)
(9.20628 -3.58656e-19 0.389197)
(9.29495 2.02714e-19 0.407625)
(9.03452 5.32492e-20 0.441003)
(9.13374 2.79365e-19 0.46354)
(8.84587 3.34093e-19 0.497457)
(8.9563 -3.20889e-19 0.524268)
(8.63978 1.93919e-20 0.55921)
(8.76219 1.88592e-20 0.590494)
(8.41555 6.39815e-19 0.626928)
(8.55084 -6.25761e-19 0.662977)
(8.17234 -1.64745e-19 0.701229)
(8.3217 1.30126e-18 0.742451)
(7.9093 7.91843e-19 0.782751)
(8.07385 -7.22025e-19 0.829564)
(7.62559 1.61224e-18 0.87215)
(7.80654 1.34741e-18 0.925045)
(7.32018 -1.6434e-18 0.969892)
(7.51919 1.47524e-18 1.02963)
(6.99193 -1.90878e-18 1.0762)
(7.21071 -3.2198e-18 1.14377)
(6.6397 -4.13259e-19 1.19102)
(6.87998 -3.15424e-18 1.26766)
(6.26233 -2.07705e-19 1.31384)
(6.52595 3.22909e-18 1.4012)
(5.85854 0 1.44344)
(6.14729 0 1.5437)
(5.42683 4.97059e-19 1.57748)
(5.74258 0 1.69369)
(4.96553 -4.23229e-18 1.71214)
(5.30969 4.90712e-19 1.84825)
(4.4727 3.13513e-19 1.84203)
(4.84581 -1.201e-17 2.00285)
(3.94538 4.83067e-18 1.95935)
(4.34756 2.02245e-17 2.15124)
(3.37814 1.23296e-18 2.05298)
(3.80952 -1.61854e-17 2.28461)
(2.76079 1.22075e-18 2.10774)
(3.22265 5.98516e-21 2.39103)
(2.07454 7.05757e-19 2.10691)
(2.57748 9.69758e-18 2.4545)
(1.28806 -2.67028e-18 2.03817)
(1.82442 -5.96688e-19 2.46625)
(1.0927 2.05252e-17 2.39593)
(9.98342 -5.05305e-19 0.0802747)
(10.0009 -2.54511e-22 0.0586847)
(9.94799 -2.45814e-19 0.127951)
(9.97238 -5.71532e-20 0.112868)
(9.89306 -6.427e-20 0.173371)
(9.92496 2.87291e-19 0.163292)
(9.82063 1.30137e-19 0.219041)
(9.86153 -3.54026e-19 0.213031)
(9.73201 1.11326e-19 0.266135)
(9.78229 3.64096e-19 0.263886)
(9.62753 7.41303e-20 0.31538)
(9.68707 -2.48273e-19 0.316755)
(9.50734 -4.14738e-19 0.367478)
(9.57621 1.93797e-19 0.372366)
(9.37158 -3.097e-19 0.423122)
(9.45006 -5.95541e-19 0.431424)
(9.22021 8.42163e-19 0.483)
(9.30865 4.06433e-19 0.494668)
(9.05307 -1.04329e-19 0.547812)
(9.15188 1.1246e-18 0.562846)
(8.86987 -6.31014e-19 0.618287)
(8.9796 -1.7256e-18 0.636724)
(8.67019 -6.36525e-19 0.69521)
(8.79143 5.79006e-19 0.717121)
(8.45356 6.54694e-20 0.77941)
(8.58693 -6.36004e-19 0.804914)
(8.21935 7.12982e-19 0.871661)
(8.36574 6.81136e-19 0.901013)
(7.96684 -1.34852e-19 0.972697)
(8.12719 1.35801e-18 1.00623)
(7.69542 1.21186e-18 1.08331)
(7.87054 -1.34982e-18 1.12133)
(7.4044 -1.70262e-19 1.20422)
(7.59538 -1.46283e-18 1.24722)
(7.09287 -4.46462e-18 1.33587)
(7.30094 4.33209e-18 1.38465)
(6.75974 5.78053e-19 1.4784)
(6.98623 -6.14627e-18 1.53404)
(6.40381 3.39407e-18 1.63152)
(6.65014 3.83331e-18 1.6955)
(6.02359 0 1.79431)
(6.29124 -3.28424e-18 1.86864)
(5.61708 0 1.96479)
(5.90779 3.79766e-18 2.0524)
(5.18128 -7.4316e-18 2.13933)
(5.49722 -7.11574e-18 2.24451)
(4.71209 8.21612e-18 2.31265)
(5.05526 -7.44324e-21 2.44084)
(4.20368 -1.06723e-18 2.47761)
(4.57635 1.43844e-17 2.63568)
(3.64701 -1.73091e-17 2.62452)
(4.05294 -1.71783e-17 2.82149)
(3.02872 8.48529e-18 2.74047)
(3.47342 -1.21449e-18 2.98797)
(2.33075 8.39685e-18 2.80985)
(2.82719 1.02171e-17 3.12029)
(1.53721 2.29988e-17 2.81831)
(2.07762 1.81427e-17 3.20246)
(1.27744 2.04843e-18 3.21072)
(9.98246 4.47055e-19 0.092197)
(10.0008 -2.4565e-19 0.06638)
(9.94683 4.82242e-19 0.148918)
(9.97178 2.5302e-19 0.129032)
(9.89302 -1.3848e-20 0.20363)
(9.92469 1.15368e-19 0.18858)
(9.8224 -1.07581e-19 0.258581)
(9.86291 -1.17697e-19 0.247398)
(9.73599 -5.97532e-21 0.315191)
(9.78593 -1.18022e-19 0.307402)
(9.63419 -1.21221e-19 0.374399)
(9.69335 -4.93295e-19 0.36979)
(9.5172 0 0.436966)
(9.58565 -1.27992e-19 0.435389)
(9.38518 1.37011e-19 0.503642)
(9.46323 2.58204e-19 0.504946)
(9.23815 7.00359e-19 0.575221)
(9.32615 2.01128e-19 0.579287)
(9.07599 -5.42009e-19 0.652519)
(9.17438 4.90494e-19 0.659281)
(8.89845 -4.79466e-19 0.736391)
(9.00778 -1.67836e-18 0.745822)
(8.70518 5.61054e-19 0.827736)
(8.82599 -2.15291e-20 0.839836)
(8.4958 0 0.927511)
(8.62866 1.2117e-18 0.942293)
(8.26987 1.33642e-18 1.03666)
(8.41544 -1.24538e-18 1.05422)
(8.0268 1.02977e-19 1.15603)
(8.18594 2.58757e-18 1.17661)
(7.76602 -4.02787e-18 1.28652)
(7.93947 -1.17793e-18 1.31034)
(7.48696 3.12275e-18 1.42903)
(7.67549 -2.99843e-18 1.4564)
(7.18887 2.50679e-18 1.58429)
(7.39345 6.00517e-18 1.6158)
(6.87074 -2.75412e-18 1.75271)
(7.09244 -3.19552e-18 1.78926)
(6.53126 -2.94265e-18 1.93426)
(6.7713 3.87413e-19 1.97723)
(6.16873 6.00047e-19 2.12841)
(6.42843 -2.89845e-18 2.17962)
(5.78085 -3.44387e-18 2.33389)
(6.06171 3.3936e-18 2.39589)
(5.36388 3.73686e-19 2.5479)
(5.66827 -1.38845e-17 2.62477)
(4.91229 6.31052e-18 2.76581)
(5.24321 7.27453e-18 2.86319)
(4.41858 -1.97385e-18 2.98131)
(4.77955 -1.12948e-19 3.10612)
(3.87225 -1.01018e-18 3.18598)
(4.26848 1.45781e-17 3.34697)
(3.25961 5.58255e-19 3.36772)
(3.6976 7.98093e-18 3.57602)
(2.56393 1.99385e-17 3.50723)
(3.05494 1.22964e-19 3.77785)
(1.77839 -3.17508e-18 3.57953)
(2.32151 1.98011e-17 3.92265)
(1.46785 -4.10705e-17 3.99073)
(9.98213 -4.31614e-19 0.10424)
(10.0008 -8.0975e-22 0.0742198)
(9.94672 -1.16413e-19 0.169592)
(9.97185 0 0.145101)
(9.89429 7.36461e-21 0.233164)
(9.92556 -3.4156e-19 0.213236)
(9.8258 -1.28136e-19 0.297073)
(9.86567 -1.14701e-19 0.280751)
(9.74198 -6.11827e-19 0.362892)
(9.79122 -1.50432e-23 0.34965)
(9.64326 -4.94031e-19 0.431695)
(9.70166 -8.56756e-19 0.421259)
(9.52996 1.36573e-19 0.504315)
(9.59759 -1.27627e-19 0.496477)
(9.40227 3.21458e-19 0.581578)
(9.47946 2.58323e-19 0.576122)
(9.26025 -4.27483e-21 0.664385)
(9.34735 -6.55951e-20 0.661108)
(9.10379 -6.80056e-19 0.753683)
(9.20126 -6.8787e-22 0.752435)
(8.93266 -1.19483e-18 0.850437)
(9.04108 5.14452e-19 0.851119)
(8.74655 6.47765e-19 0.955647)
(8.86646 -5.79869e-19 0.958182)
(8.5451 -7.04709e-20 1.07035)
(8.67711 1.20717e-18 1.07469)
(8.32796 6.20363e-20 1.19563)
(8.47268 -2.45139e-18 1.20175)
(8.09468 1.25196e-18 1.33248)
(8.25292 1.29101e-18 1.34049)
(7.84468 -1.72927e-19 1.48193)
(8.01717 -8.1217e-20 1.492)
(7.57736 1.0513e-20 1.64503)
(7.76481 -8.62141e-20 1.65737)
(7.29203 1.73351e-19 1.8228)
(7.49532 4.32258e-21 1.83778)
(6.98766 -3.69827e-21 2.016)
(7.20775 0 2.03436)
(6.66281 3.90554e-19 2.225)
(6.90096 -3.68685e-19 2.24794)
(6.31552 -2.76286e-20 2.44967)
(6.57312 -6.01401e-18 2.4789)
(5.94306 -7.24131e-18 2.6895)
(6.22161 5.7438e-18 2.72725)
(5.54131 -6.77529e-18 2.94291)
(5.84319 -6.77114e-18 2.99273)
(5.10408 7.80746e-19 3.20634)
(5.43273 -6.69195e-18 3.27362)
(4.6229 1.6525e-17 3.4743)
(4.98252 7.88728e-19 3.56592)
(4.08658 2.35333e-17 3.73881)
(4.48275 2.21756e-17 3.86362)
(3.48163 7.52632e-18 3.98719)
(3.92065 7.97377e-18 4.15659)
(2.79135 5.94961e-20 4.19425)
(3.28109 -4.91253e-19 4.42829)
(2.01083 -1.97581e-17 4.31967)
(2.56419 3.28526e-19 4.63314)
(1.66277 -1.94288e-17 4.74799)
(9.98221 4.30937e-19 0.116201)
(10.0009 4.92765e-19 0.0820253)
(9.94748 -2.31333e-19 0.18981)
(9.97243 -5.53186e-20 0.160874)
(9.89666 -4.59692e-19 0.261809)
(9.92736 -7.28857e-22 0.237148)
(9.83054 1.54045e-20 0.334332)
(9.86953 2.29845e-19 0.312977)
(9.74965 -2.59366e-19 0.409049)
(9.79785 7.13449e-19 0.390452)
(9.65448 -4.7825e-19 0.487092)
(9.71172 -7.29652e-19 0.470928)
(9.5454 4.08253e-22 0.569359)
(9.61177 6.17881e-19 0.555347)
(9.42264 -1.34039e-19 0.656766)
(9.49849 0 0.644618)
(9.28628 -6.10207e-20 0.750325)
(9.37196 -6.54354e-19 0.739766)
(9.13622 1.20231e-18 0.851101)
(9.2322 1.67064e-18 0.841901)
(8.97228 1.11365e-18 0.960169)
(9.07915 1.26572e-18 0.952149)
(8.79419 6.35215e-21 1.07862)
(8.91251 -1.10599e-18 1.07163)
(8.60161 -1.22852e-18 1.20759)
(8.73201 -1.16538e-18 1.20151)
(8.39425 -1.16842e-18 1.34825)
(8.5374 -2.73043e-20 1.34296)
(8.17167 -6.26684e-20 1.50179)
(8.32836 5.08959e-21 1.49728)
(7.93328 5.46121e-21 1.66936)
(8.10435 2.43517e-18 1.66576)
(7.67846 -9.10981e-20 1.85221)
(7.86475 -2.39236e-18 1.8496)
(7.40648 -1.69422e-19 2.05161)
(7.60877 -1.71745e-19 2.05019)
(7.11624 -3.69772e-19 2.26878)
(7.33552 2.897e-18 2.26907)
(6.80615 -6.84408e-18 2.50459)
(7.04386 -3.31201e-18 2.50757)
(6.47395 -1.18281e-19 2.75947)
(6.73168 -6.41485e-18 2.76666)
(6.11646 6.09682e-18 3.03369)
(6.39601 6.16247e-18 3.0471)
(5.72916 -6.68204e-18 3.32684)
(6.03311 6.06514e-18 3.34952)
(5.30548 -6.63512e-18 3.63675)
(5.6375 -1.29986e-17 3.67357)
(4.83631 6.566e-18 3.95882)
(5.201 1.39639e-19 4.01666)
(4.30965 6.55413e-18 4.28503)
(4.71275 6.53906e-18 4.37343)
(3.71168 -5.93077e-20 4.60132)
(4.15942 -1.35603e-17 4.73289)
(3.02433 -1.86266e-19 4.87639)
(3.52036 2.8072e-17 5.0775)
(2.23872 1.91213e-20 5.05189)
(2.81303 -1.48671e-17 5.34687)
(1.86299 9.08869e-21 5.50578)
(9.98256 -2.51224e-21 0.127918)
(10.001 -4.32636e-19 0.0896818)
(9.94888 1.7633e-19 0.209424)
(9.9734 1.10126e-19 0.176176)
(9.89994 6.93063e-19 0.289458)
(9.92994 3.39793e-19 0.2602)
(9.83639 9.36397e-19 0.370238)
(9.87433 3.44862e-21 0.343975)
(9.75876 2.18941e-19 0.453487)
(9.80565 2.38768e-19 0.429651)
(9.66755 3.88909e-19 0.540357)
(9.72335 2.36856e-19 0.518577)
(9.5632 6.07655e-19 0.631809)
(9.628 1.29225e-19 0.611732)
(9.44595 -5.30806e-19 0.728864)
(9.5201 -7.53728e-19 0.710131)
(9.31585 1.11386e-18 0.832643)
(9.39975 -1.13393e-20 0.814915)
(9.17287 1.72824e-18 0.944315)
(9.26695 2.66009e-18 0.927284)
(9.01687 -9.90462e-19 1.06506)
(9.12173 -1.06006e-18 1.04846)
(8.84761 -2.27966e-18 1.19606)
(8.9638 -1.11914e-18 1.17967)
(8.66485 5.25056e-20 1.33853)
(8.793 -2.50298e-20 1.32215)
(8.46827 1.1484e-18 1.49377)
(8.60914 2.35595e-18 1.47718)
(8.25752 2.53777e-18 1.66315)
(8.41183 -4.76709e-18 1.64619)
(8.03202 -2.64188e-20 1.84805)
(8.20076 4.93009e-18 1.8307)
(7.79101 -2.44662e-18 2.04983)
(7.97531 4.34822e-20 2.03216)
(7.53366 2.93456e-18 2.27007)
(7.73429 -2.49903e-18 2.25212)
(7.2588 -1.16634e-19 2.51047)
(7.47691 2.73808e-18 2.49248)
(6.96475 -2.91721e-18 2.7725)
(7.20205 -2.86698e-18 2.75515)
(6.64901 0 3.05739)
(6.90733 0 3.04185)
(6.30801 6.12513e-18 3.36627)
(6.58957 0 3.35426)
(5.9367 -3.98822e-19 3.69989)
(6.24458 6.07848e-18 3.69408)
(5.52799 -6.13056e-18 4.05755)
(5.86632 -1.2028e-17 4.06235)
(5.07202 1.45112e-19 4.43591)
(5.44597 2.4625e-20 4.45812)
(4.5556 -1.36899e-17 4.82703)
(4.9714 -6.2871e-18 4.87727)
(3.96329 1.48125e-17 5.21544)
(4.42806 -1.16724e-18 5.30832)
(3.27409 1.31166e-17 5.5646)
(3.78738 2.81449e-17 5.73334)
(2.47067 -1.44146e-17 5.79701)
(3.07962 -1.473e-17 6.07991)
(2.07389 -1.2914e-19 6.29326)
(9.98308 -3.1107e-19 0.139257)
(10.0012 -5.5178e-20 0.0971103)
(9.95082 2.77813e-19 0.22829)
(9.97465 -2.72121e-19 0.190844)
(9.904 -3.5594e-19 0.315999)
(9.93308 1.13225e-19 0.282272)
(9.84323 -6.90482e-19 0.40466)
(9.87993 -4.59159e-19 0.373647)
(9.76917 2.56622e-19 0.496014)
(9.8145 -2.35304e-19 0.467091)
(9.68237 -2.46189e-20 0.591239)
(9.73639 -2.33375e-19 0.563979)
(9.58327 -1.24688e-18 0.69137)
(9.64611 -5.24281e-21 0.665356)
(9.47209 -2.22581e-19 0.797542)
(9.54412 -7.53e-19 0.772346)
(9.34888 1.57639e-18 0.910976)
(9.43048 7.64364e-19 0.886206)
(9.21363 -1.85145e-19 1.03292)
(9.30527 1.18601e-18 1.00821)
(9.06625 -1.18993e-18 1.16465)
(9.16852 -1.20821e-18 1.13964)
(8.90658 1.15296e-18 1.30743)
(9.02 0 1.28183)
(8.73445 2.31374e-18 1.46257)
(8.85969 9.99475e-19 1.43607)
(8.54962 -3.66e-18 1.63148)
(8.68748 1.10681e-18 1.60377)
(8.35178 -2.24906e-18 1.81573)
(8.50296 -7.0833e-18 1.78647)
(8.14046 4.93956e-18 2.01696)
(8.30596 2.4019e-18 1.98591)
(7.9148 -3.63038e-20 2.23676)
(8.09595 4.91085e-18 2.20392)
(7.67376 -2.63875e-18 2.47697)
(7.87161 -2.54245e-18 2.44227)
(7.4162 -7.63782e-20 2.73975)
(7.63214 -1.64506e-19 2.70311)
(7.1404 8.43939e-20 3.02729)
(7.37634 1.65797e-19 2.98897)
(6.84363 0 3.34171)
(7.10182 -1.00666e-20 3.30246)
(6.52199 0 3.68529)
(6.80516 0 3.64634)
(6.16999 -5.69496e-18 4.06014)
(6.48189 0 4.02366)
(5.77987 -5.79246e-18 4.46719)
(6.12552 -5.66257e-18 4.43709)
(5.34068 -6.45521e-18 4.90488)
(5.72637 -5.71995e-18 4.88776)
(4.83729 6.29422e-18 5.36624)
(5.27057 1.06347e-17 5.3738)
(4.25097 1.23239e-17 5.83531)
(4.74145 1.10709e-18 5.88464)
(3.55546 0 6.27191)
(4.10015 0 6.4035)
(2.72097 0 6.57971)
(3.38262 0 6.84985)
(2.3075 1.36313e-17 7.14426)
(9.98377 -1.9875e-20 0.150118)
(10.0016 8.60808e-19 0.104233)
(9.95312 -4.29835e-19 0.246294)
(9.97607 -1.15403e-21 0.204792)
(9.90864 0 0.341325)
(9.93653 4.43225e-19 0.303263)
(9.85092 0 0.437467)
(9.88614 6.78496e-19 0.401869)
(9.78074 -7.25452e-19 0.536443)
(9.82427 -2.30122e-19 0.502617)
(9.69875 -2.10417e-19 0.639493)
(9.75068 -2.4334e-19 0.606931)
(9.60535 4.77254e-19 0.747757)
(9.66587 1.20486e-18 0.715973)
(9.50074 2.5781e-19 0.862482)
(9.57019 2.7333e-21 0.830992)
(9.38497 3.79999e-19 0.984971)
(9.46371 1.00569e-18 0.953329)
(9.25805 1.27239e-19 1.11654)
(9.34662 2.63285e-19 1.08431)
(9.11996 0 1.25852)
(9.21891 -1.03729e-18 1.22529)
(8.97063 -1.39854e-19 1.41225)
(9.0805 0 1.37765)
(8.81001 -2.07464e-19 1.57915)
(8.93154 -1.36886e-19 1.54274)
(8.63791 -2.42592e-18 1.76074)
(8.77187 1.36396e-19 1.72209)
(8.45406 -2.3088e-18 1.95875)
(8.60122 -2.1873e-18 1.9174)
(8.25808 2.40158e-18 2.17509)
(8.41944 -1.24756e-20 2.13057)
(8.04927 2.31819e-18 2.41173)
(8.22602 2.45984e-18 2.36376)
(7.82651 -3.83087e-20 2.67078)
(8.02013 -1.12436e-19 2.61916)
(7.58859 8.13549e-20 2.9548)
(7.80085 0 2.89915)
(7.33385 6.96065e-20 3.26675)
(7.56673 -4.81878e-18 3.20677)
(7.05949 -9.99461e-21 3.60981)
(7.31568 4.92758e-18 3.5457)
(6.7613 0 3.98759)
(7.04434 0 3.91996)
(6.43354 0 4.40387)
(6.74807 0 4.33406)
(6.06798 -5.59042e-18 4.86172)
(6.4201 5.05361e-18 4.7927)
(5.65227 1.15032e-17 5.36233)
(6.05017 -1.5701e-17 5.30005)
(5.16855 5.35688e-18 5.90135)
(5.62247 2.17252e-17 5.85799)
(4.59282 -1.12368e-17 6.46469)
(5.11727 -1.13669e-17 6.45962)
(3.88999 0 7.01149)
(4.48314 1.03215e-17 7.09275)
(3.01198 1.40723e-17 7.42908)
(3.75221 -1.07341e-17 7.67502)
(2.58664 1.36481e-17 8.10391)
(9.98462 8.65412e-19 0.16044)
(10.0022 5.43056e-20 0.110982)
(9.95559 8.80167e-19 0.263363)
(9.9776 8.15156e-19 0.218015)
(9.91366 1.12607e-18 0.365316)
(9.94012 1.44471e-21 0.32308)
(9.8593 4.33018e-19 0.468506)
(9.89284 2.28722e-19 0.428481)
(9.79333 2.51978e-19 0.574595)
(9.8349 -6.88887e-19 0.536063)
(9.71648 1.19583e-18 0.684911)
(9.76616 2.34659e-19 0.647255)
(9.62914 7.11435e-19 0.80074)
(9.68713 9.56969e-19 0.763391)
(9.53146 7.6624e-19 0.923422)
(9.59808 -7.26579e-19 0.885863)
(9.42352 8.78078e-19 1.05431)
(9.49912 1.24501e-18 1.01605)
(9.30544 -9.20693e-19 1.19477)
(9.39055 -1.17817e-19 1.1553)
(9.17726 -1.02311e-18 1.34619)
(9.27238 -1.094e-20 1.30502)
(9.03906 1.12339e-21 1.50998)
(9.14478 -1.03863e-18 1.46663)
(8.89081 2.10908e-19 1.68763)
(9.00792 -9.30758e-19 1.64157)
(8.73242 3.46398e-19 1.8808)
(8.8616 -1.01975e-18 1.83149)
(8.56367 1.38476e-19 2.09138)
(8.7058 2.32498e-18 2.03821)
(8.38424 7.34369e-20 2.32147)
(8.54039 0 2.2638)
(8.1937 -2.77755e-21 2.57343)
(8.36483 1.60832e-21 2.51061)
(7.99119 -7.29742e-20 2.84979)
(8.17904 -1.8255e-21 2.78127)
(7.77544 -4.95291e-18 3.15344)
(7.98216 0 3.07857)
(7.54486 1.23915e-19 3.48807)
(7.77252 -4.91229e-18 3.406)
(7.29694 4.90603e-18 3.85814)
(7.54845 4.95201e-18 3.76819)
(7.02751 0 4.26874)
(7.30729 4.41903e-18 4.17062)
(6.73074 5.09559e-18 4.72548)
(7.04463 -4.99615e-18 4.61941)
(6.39827 -5.18404e-18 5.23432)
(6.7536 5.0721e-18 5.12161)
(6.01667 -5.26572e-18 5.80077)
(6.42428 -1.07463e-17 5.68553)
(5.56513 4.74787e-18 6.42586)
(6.03963 5.09215e-18 6.31905)
(5.01271 1.04545e-17 7.10196)
(5.57691 5.08783e-18 7.02333)
(4.31049 -7.14984e-19 7.79421)
(4.97104 5.77971e-18 7.79789)
(3.38206 -1.04421e-17 8.38309)
(4.23972 -1.02148e-17 8.57131)
(2.95585 -6.14813e-19 9.24216)
(9.98555 1.65706e-20 0.170193)
(10.0028 4.72941e-19 0.117324)
(9.9582 -7.839e-20 0.279448)
(9.97931 -4.82727e-19 0.230482)
(9.91898 -8.92379e-19 0.387849)
(9.94394 -4.42159e-19 0.341641)
(9.86833 -9.09093e-19 0.497608)
(9.89994 2.17838e-19 0.453323)
(9.80692 -6.91199e-19 0.6103)
(9.84631 -1.13984e-18 0.567249)
(9.73552 7.04017e-21 0.72733)
(9.78274 -6.98898e-19 0.684791)
(9.65454 -5.07803e-19 0.850145)
(9.70972 9.3843e-19 0.80745)
(9.56412 -2.18142e-19 0.980172)
(9.62753 -4.90334e-19 0.936778)
(9.46438 2.28621e-19 1.11877)
(9.53647 4.91935e-19 1.07416)
(9.35555 7.94161e-19 1.26734)
(9.43679 -1.24506e-18 1.22092)
(9.23784 -4.00337e-20 1.4273)
(9.32866 2.03148e-18 1.37851)
(9.11139 -1.97026e-18 1.60014)
(9.21242 -1.81132e-18 1.54838)
(8.97624 -2.16427e-18 1.78744)
(9.08824 1.02103e-19 1.7321)
(8.83238 1.00111e-18 1.99099)
(8.95599 -1.22874e-18 1.93138)
(8.67973 2.16028e-18 2.2128)
(8.81585 2.05396e-18 2.14817)
(8.51809 -7.19169e-20 2.45512)
(8.66779 0 2.38469)
(8.34727 2.47887e-21 2.72059)
(8.51152 -2.26265e-18 2.64337)
(8.16682 7.1351e-20 3.0122)
(8.3474 2.27202e-18 2.92714)
(7.97573 0 3.33327)
(8.1748 -2.22333e-18 3.23935)
(7.77254 0 3.6881)
(7.99244 2.22475e-18 3.58394)
(7.55531 4.45895e-18 4.08237)
(7.799 0 3.96619)
(7.3206 -6.40646e-19 4.52282)
(7.59299 9.42464e-18 4.39298)
(7.06313 -4.9733e-18 5.01704)
(7.37105 -9.14638e-18 4.87221)
(6.77496 -5.76498e-19 5.57457)
(7.12716 -5.34723e-19 5.41346)
(6.44284 -2.7255e-19 6.20689)
(6.85306 -3.07433e-20 6.0299)
(6.04435 5.43589e-18 6.92426)
(6.53298 2.94946e-19 6.73765)
(5.54183 3.8378e-19 7.7336)
(6.14428 6.20787e-19 7.55183)
(4.86847 -3.9451e-18 8.62095)
(5.61219 -6.40036e-19 8.49627)
(3.90556 -7.91692e-20 9.4935)
(4.93657 5.75148e-20 9.53775)
(3.50676 -7.69659e-18 10.6709)
(9.98656 -4.20469e-20 0.17933)
(10.0034 -8.40845e-19 0.123223)
(9.96109 -8.4595e-19 0.29449)
(9.98126 -4.32727e-19 0.242106)
(9.92467 6.79901e-19 0.408823)
(9.94808 -4.34121e-19 0.358902)
(9.8779 -3.55824e-20 0.524617)
(9.90741 4.46762e-19 0.476303)
(9.82135 -1.1404e-18 0.643395)
(9.85829 -4.57152e-19 0.596027)
(9.75566 2.58649e-19 0.7666)
(9.80017 -4.62956e-19 0.719403)
(9.68125 9.34208e-19 0.895813)
(9.73332 9.33792e-19 0.848042)
(9.59834 2.34823e-19 1.03253)
(9.65819 1.66154e-21 0.983593)
(9.50719 -1.00776e-18 1.17811)
(9.57533 0 1.12744)
(9.40808 3.8408e-20 1.33394)
(9.48496 -7.50989e-19 1.28091)
(9.30132 2.07231e-19 1.50149)
(9.38731 1.00405e-18 1.44544)
(9.18712 2.87849e-19 1.68233)
(9.28286 -1.02431e-18 1.62256)
(9.06564 1.02267e-18 1.8781)
(9.17179 1.28955e-18 1.81392)
(8.93699 -1.36017e-19 2.09068)
(9.0542 -2.06433e-18 2.02128)
(8.80127 -1.32817e-19 2.32219)
(8.93036 1.94145e-18 2.24667)
(8.65856 -2.21767e-18 2.57501)
(8.80048 -2.10534e-18 2.49238)
(8.5089 5.35262e-20 2.85196)
(8.66482 -2.46666e-18 2.76092)
(8.3522 -6.64913e-20 3.15632)
(8.52376 2.19837e-18 3.05542)
(8.18799 4.02309e-20 3.49191)
(8.37708 -9.88444e-20 3.3796)
(8.01536 2.21023e-18 3.86357)
(8.22435 2.23065e-18 3.73785)
(7.83304 5.03508e-18 4.27789)
(8.065 2.61932e-19 4.13593)
(7.63901 8.00435e-19 4.74304)
(7.89884 5.57914e-19 4.58159)
(7.42969 -4.65298e-18 5.26872)
(7.72429 5.0543e-19 5.08419)
(7.19896 1.50282e-20 5.86818)
(7.53794 -4.02694e-18 5.65577)
(6.93622 5.40059e-19 6.55979)
(7.3353 4.00665e-18 6.31392)
(6.62169 -4.53657e-18 7.3666)
(7.10654 0 7.08361)
(6.21721 -4.25604e-19 8.32067)
(6.83801 -7.50637e-18 7.99823)
(5.64337 3.38173e-18 9.45807)
(6.46378 4.20208e-18 9.12111)
(4.73378 -7.73146e-18 10.8219)
(6.00321 2.59172e-18 10.5089)
(4.41442 -7.18631e-18 12.5599)
(9.98766 -1.22505e-18 0.18779)
(10.004 -9.25439e-19 0.128642)
(9.96426 -2.07203e-20 0.308423)
(9.98335 -4.66194e-19 0.252799)
(9.93072 -6.52292e-19 0.428189)
(9.95254 6.92903e-20 0.37482)
(9.88789 9.91822e-21 0.549452)
(9.91525 -6.4032e-19 0.497393)
(9.83636 2.20599e-19 0.673764)
(9.87077 -1.96638e-19 0.622319)
(9.77656 2.34294e-19 0.802607)
(9.81828 4.27882e-19 0.751004)
(9.70887 -1.34099e-20 0.93761)
(9.75777 -2.01393e-19 0.885082)
(9.63372 -2.33389e-19 1.0803)
(9.69 1.0834e-18 1.02618)
(9.55149 2.46372e-19 1.23206)
(9.61566 -2.24054e-19 1.17571)
(9.46248 2.39481e-19 1.39428)
(9.53494 2.45795e-19 1.33504)
(9.36702 -2.55464e-19 1.56844)
(9.44819 2.2963e-19 1.5056)
(9.26547 7.68441e-21 1.75616)
(9.35592 -4.89415e-19 1.68894)
(9.15811 -1.84166e-18 1.95916)
(9.25842 -2.14431e-19 1.88676)
(9.04521 6.09104e-20 2.17935)
(9.15604 -2.10632e-18 2.10088)
(8.92712 -7.70106e-20 2.4189)
(9.04919 2.3578e-18 2.33328)
(8.80426 -2.35906e-18 2.68026)
(8.93843 -2.38968e-18 2.58626)
(8.67694 -2.75273e-19 2.96636)
(8.82442 -2.72753e-19 2.86244)
(8.54542 2.14541e-18 3.28063)
(8.70762 -2.48455e-19 3.16505)
(8.40988 2.11393e-18 3.62724)
(8.58849 2.17514e-18 3.49792)
(8.27037 2.64337e-19 4.01145)
(8.46739 -2.41719e-18 3.86565)
(8.12672 -4.22704e-18 4.44034)
(8.34513 1.94921e-18 4.27427)
(7.97871 2.63489e-19 4.92284)
(8.22295 -4.54588e-18 4.73172)
(7.82555 1.10866e-18 5.47022)
(8.10153 4.28448e-18 5.24795)
(7.66511 1.06291e-20 6.09863)
(7.98161 -2.50924e-20 5.83632)
(7.49322 3.44043e-18 6.83197)
(7.86509 -1.17996e-18 6.51661)
(7.30099 -3.03982e-18 7.70527)
(7.75377 7.28949e-20 7.31862)
(7.06715 -2.74519e-18 8.77929)
(7.65739 -1.93489e-18 8.28846)
(6.73546 3.28514e-18 10.1698)
(7.56432 2.47145e-19 9.52452)
(6.15827 3.12363e-18 12.4334)
(7.77755 3.1389e-18 11.2119)
(7.35232 -1.60475e-19 15.1148)
(0.0231987 -3.68188e-21 -0.0288364)
(-0.007841 1.88151e-21 -0.0226186)
(0.131586 -3.23227e-21 -0.0541191)
(0.0646103 0 -0.0875768)
(0.277519 -3.41496e-21 -0.0586737)
(0.196786 -1.10584e-19 -0.109258)
(0.419168 0 -0.0493886)
(0.33753 1.95516e-19 -0.100915)
(0.534785 0 -0.0351525)
(0.466706 -9.27334e-20 -0.0799766)
(0.617509 1.99756e-20 -0.0210375)
(0.569882 8.4168e-20 -0.0562984)
(0.668933 -4.51789e-21 -0.00939258)
(0.642773 -6.26522e-20 -0.0347206)
(0.695023 -2.02599e-20 -0.000964303)
(0.688233 -1.01917e-20 -0.0175437)
(0.702845 -1.973e-22 0.00445042)
(0.712077 4.52875e-20 -0.00520663)
(0.69791 -2.16508e-20 0.00756732)
(0.720442 -7.07629e-20 0.00340632)
(0.68418 3.1461e-21 0.00909329)
(0.718062 -7.67068e-21 0.00933829)
(0.665858 1.2545e-20 0.00963904)
(0.708149 4.07368e-20 0.0124114)
(0.645075 -7.93635e-21 0.0102295)
(0.693537 -7.8998e-21 0.0140181)
(0.620421 0 0.0116513)
(0.675135 -1.43343e-20 0.0165321)
(0.589743 0 0.0133319)
(0.650664 1.4169e-20 0.0204181)
(0.554546 3.10384e-21 0.0139916)
(0.619408 -6.41122e-21 0.0232289)
(0.519147 6.05594e-21 0.0137165)
(0.584308 1.24113e-20 0.0231544)
(0.482674 2.95077e-21 0.0140188)
(0.548326 -1.12285e-22 0.0236316)
(0.439211 0 0.015055)
(0.50873 5.39731e-21 0.0278694)
(0.388895 2.3473e-21 0.014967)
(0.461381 0 0.0319216)
(0.339587 2.37953e-21 0.0123089)
(0.408917 -2.23409e-21 0.0309549)
(0.301857 -1.97413e-21 0.00754481)
(0.36106 2.24559e-21 0.0234479)
(0.283965 -1.79342e-21 0.00153107)
(0.326963 3.19924e-23 0.0110231)
(0.286802 -1.5292e-21 -0.00542728)
(0.308776 2.089e-22 -0.00169315)
(0.308641 -1.7652e-21 -0.013041)
(0.301809 2.85534e-21 -0.0131293)
(0.348188 1.05831e-21 -0.0203612)
(0.304096 0 -0.0235851)
(0.403475 3.19763e-22 -0.026449)
(0.321834 -1.82022e-21 -0.0326895)
(0.473949 -7.95365e-22 -0.031236)
(0.358352 1.32521e-21 -0.0413107)
(0.560196 -2.27473e-22 -0.0344922)
(0.411665 -1.0734e-21 -0.0501434)
(0.510658 -1.28675e-25 -0.0553598)
(0.0190529 5.58226e-21 -0.0857905)
(-0.0101049 2.34643e-19 -0.057466)
(0.122553 -1.04132e-19 -0.151273)
(0.0523376 0 -0.176971)
(0.258008 8.34161e-20 -0.161901)
(0.166438 -9.46293e-20 -0.212129)
(0.392983 1.03579e-19 -0.141475)
(0.28866 1.95032e-19 -0.196552)
(0.508928 -1.0119e-20 -0.109223)
(0.40225 -9.0016e-20 -0.159116)
(0.598811 9.69544e-22 -0.0759479)
(0.494885 8.42554e-20 -0.116523)
(0.662643 -6.86905e-20 -0.0469886)
(0.562924 -1.72815e-19 -0.0772341)
(0.704407 5.51607e-20 -0.0243835)
(0.608172 8.37162e-20 -0.0454173)
(0.728928 -2.48076e-20 -0.00776367)
(0.635003 4.08212e-20 -0.0216888)
(0.740553 -5.70132e-20 0.00405215)