# vtk DataFile Version 2.0

ASCII

DATASET UNSTRUCTURED_GRID

POINTS 33 double 

-5.00000000000000028e-02  3.33333333349999997e-02  0.00000000000000000e+00
-5.00000000000000028e-02  9.99999999850000182e-02  0.00000000000000000e+00
-5.00000000000000097e-02  1.66666666650000017e-01  0.00000000000000000e+00
-5.00000000000000028e-02  2.33333333350000005e-01  0.00000000000000000e+00
-5.00000000000000028e-02  2.99999999999999989e-01  0.00000000000000000e+00
-5.00000000000000097e-02  3.66666666650000028e-01  0.00000000000000000e+00
-5.00000000000000028e-02  4.33333333350000016e-01  0.00000000000000000e+00
-5.00000000000000028e-02  5.00000000000000000e-01  0.00000000000000000e+00
-5.00000000000000028e-02  5.66666666649999873e-01  0.00000000000000000e+00
-5.00000000000000028e-02  6.33333333349999861e-01  0.00000000000000000e+00
-5.00000000000000028e-02  6.99999999999999845e-01  0.00000000000000000e+00
-5.00000000000000028e-02  7.66666666649999828e-01  0.00000000000000000e+00
-5.00000000000000028e-02  8.33333333349999927e-01  0.00000000000000000e+00
-5.00000000000000028e-02  8.99999999999999800e-01  0.00000000000000000e+00
-5.00000000000000028e-02  9.66666666650000006e-01  0.00000000000000000e+00
-3.33333333349999997e-02  1.00000000000000000e+00  0.00000000000000000e+00
0.00000000000000000e+00  1.00000000000000000e+00  0.00000000000000000e+00
3.33333333349999927e-02  9.99999999999999778e-01  0.00000000000000000e+00
5.00000000000000028e-02  3.33333333349999997e-02  0.00000000000000000e+00
5.00000000000000028e-02  9.99999999850000043e-02  0.00000000000000000e+00
5.00000000000000097e-02  1.66666666650000017e-01  0.00000000000000000e+00
5.00000000000000028e-02  2.33333333350000005e-01  0.00000000000000000e+00
5.00000000000000028e-02  2.99999999999999989e-01  0.00000000000000000e+00
5.00000000000000028e-02  3.66666666650000028e-01  0.00000000000000000e+00
5.00000000000000028e-02  4.33333333350000016e-01  0.00000000000000000e+00
5.00000000000000028e-02  5.00000000000000000e-01  0.00000000000000000e+00
5.00000000000000028e-02  5.66666666649999873e-01  0.00000000000000000e+00
5.00000000000000028e-02  6.33333333349999861e-01  0.00000000000000000e+00
5.00000000000000028e-02  6.99999999999999845e-01  0.00000000000000000e+00
5.00000000000000028e-02  7.66666666649999828e-01  0.00000000000000000e+00
5.00000000000000028e-02  8.33333333349999927e-01  0.00000000000000000e+00
5.00000000000000028e-02  8.99999999999999800e-01  0.00000000000000000e+00
5.00000000000000028e-02  9.66666666649999784e-01  0.00000000000000000e+00

CELLS 0 0


CELL_TYPES 0


POINT_DATA 33

VECTORS VertexNormals double

0.00000000000000000e+00 0.00000000000000000e+00 0
0.00000000000000000e+00 0.00000000000000000e+00 0
0.00000000000000000e+00 0.00000000000000000e+00 0
0.00000000000000000e+00 0.00000000000000000e+00 0
0.00000000000000000e+00 0.00000000000000000e+00 0
0.00000000000000000e+00 0.00000000000000000e+00 0
0.00000000000000000e+00 0.00000000000000000e+00 0
0.00000000000000000e+00 0.00000000000000000e+00 0
0.00000000000000000e+00 0.00000000000000000e+00 0
0.00000000000000000e+00 0.00000000000000000e+00 0
0.00000000000000000e+00 0.00000000000000000e+00 0
0.00000000000000000e+00 0.00000000000000000e+00 0
0.00000000000000000e+00 0.00000000000000000e+00 0
0.00000000000000000e+00 0.00000000000000000e+00 0
0.00000000000000000e+00 0.00000000000000000e+00 0
0.00000000000000000e+00 0.00000000000000000e+00 0
0.00000000000000000e+00 0.00000000000000000e+00 0
0.00000000000000000e+00 0.00000000000000000e+00 0
0.00000000000000000e+00 0.00000000000000000e+00 0
0.00000000000000000e+00 0.00000000000000000e+00 0
0.00000000000000000e+00 0.00000000000000000e+00 0
0.00000000000000000e+00 0.00000000000000000e+00 0
0.00000000000000000e+00 0.00000000000000000e+00 0
0.00000000000000000e+00 0.00000000000000000e+00 0
0.00000000000000000e+00 0.00000000000000000e+00 0
0.00000000000000000e+00 0.00000000000000000e+00 0
0.00000000000000000e+00 0.00000000000000000e+00 0
0.00000000000000000e+00 0.00000000000000000e+00 0
0.00000000000000000e+00 0.00000000000000000e+00 0
0.00000000000000000e+00 0.00000000000000000e+00 0
0.00000000000000000e+00 0.00000000000000000e+00 0
0.00000000000000000e+00 0.00000000000000000e+00 0
0.00000000000000000e+00 0.00000000000000000e+00 0

VECTORS Force double
8.58545143294668911e+00 -5.17992793967635319e-03 0
8.60648524838827278e+00 -3.32859030512400317e-02 0
8.67024986374388185e+00 -4.61246008453376141e-02 0
8.76839787791708325e+00 -3.55587685830790964e-02 0
8.88934125447070933e+00 5.47016069111407738e-03 0
9.02398373237652862e+00 8.20239748891798542e-02 0
9.16478233393121045e+00 1.99895681784020479e-01 0
9.30478110079021903e+00 3.67224899626013124e-01 0
9.43780979378210105e+00 5.96415066961802687e-01 0
9.55794380216577366e+00 9.07495079497635193e-01 0
9.65625903302617061e+00 1.33300793450950472e+00 0
9.73681427844468317e+00 1.92152346486084324e+00 0
9.98747264118173561e+00 2.74050506176144237e+00 0
1.11067498603760075e+01 3.89792621150877405e+00 0
1.41083099521478488e+01 4.74509579977800566e+00 0
3.73530556232280331e+00 8.71214719496815349e+00 0
3.37284534126263891e+00 7.05290516948311819e+00 0
3.23199559276526305e+00 5.40761563709794846e+00 0
4.53033136561261784e+00 -3.78857933880744329e-03 0
4.48096168253604166e+00 3.69972749534798950e-03 0
4.42444457061853225e+00 4.56812576538914855e-02 0
4.38709895989983512e+00 1.15985376571422480e-01 0
4.38099452386606103e+00 2.07321174541375330e-01 0
4.41271926063086184e+00 3.13872705095575577e-01 0
4.48708985179821251e+00 4.31382722325256540e-01 0
4.60894014608258118e+00 5.57164800853123587e-01 0
4.78523762334949332e+00 6.90178565626442642e-01 0
5.02774385732900875e+00 8.30850118160215145e-01 0
5.35514782052694294e+00 9.81354908962075112e-01 0
5.80517095273546779e+00 1.14919207731973483e+00 0
6.54418609953674046e+00 1.35023070589300098e+00 0
8.15415276198282335e+00 1.56459162713613953e+00 0
1.14913937192933453e+01 2.29007190977992892e+00 0

VECTORS Displacement double
4.81014463392064046e-06 7.15177633978658752e-06 0
2.39741420290604396e-05 1.97650899199329952e-05 0
5.81591223844111008e-05 3.03145059115330217e-05 0
1.04750535166256794e-04 3.90059808147990043e-05 0
1.61308148604770966e-04 4.63857353503615663e-05 0
2.26634693360660254e-04 5.29981932290172288e-05 0
3.00111088888567880e-04 5.92636804839286169e-05 0
3.81521622212637704e-04 6.51607094301925492e-05 0
4.70211683254422009e-04 7.05400493308188341e-05 0
5.65525336437913977e-04 7.57877919148530949e-05 0
6.67816307751269459e-04 8.08595663677622115e-05 0
7.76587408916069540e-04 8.51433603809586170e-05 0
8.90243777120154666e-04 8.80981779113735496e-05 0
1.00666887983522839e-03 8.94901583864861084e-05 0
1.12355708610414689e-03 8.97992667662232593e-05 0
1.18186711914348899e-03 6.06570116686968778e-05 0
1.18182661139572698e-03 2.36195179349779061e-06 0
1.18179522934002117e-03 -5.59405256348077573e-05 0
4.64311398600289704e-06 -6.90758903480287159e-06 0
2.38026811136241603e-05 -1.91187373994473260e-05 0
5.80171837125766153e-05 -2.92651823025916476e-05 0
1.04586190079345700e-04 -3.75696318526196700e-05 0
1.61140602384610718e-04 -4.45659409231835766e-05 0
2.26466504815237663e-04 -5.08060428327864724e-05 0
2.99948981541408937e-04 -5.66984272982115826e-05 0
3.81394892199228195e-04 -6.22433964634519596e-05 0
4.70064353293845314e-04 -6.72877620212197736e-05 0
5.65385308729779001e-04 -7.22286774544616557e-05 0
6.67689291380162142e-04 -7.70323134757647861e-05 0
7.76468091588768897e-04 -8.10572782947546793e-05 0
8.90149019308470097e-04 -8.37703103759146185e-05 0
1.00658086286086542e-03 -8.49538642771146906e-05 0
1.12349349774745820e-03 -8.51139556731399179e-05 0

