# vtk DataFile Version 2.0

ASCII

DATASET UNSTRUCTURED_GRID

POINTS 33 float 

-5.0000000000000003e-02  3.3333333335000000e-02  0.0000000000000000e+00
-5.0000000000000003e-02  9.9999999985000018e-02  0.0000000000000000e+00
-5.0000000000000003e-02  1.6666666665000002e-01  0.0000000000000000e+00
-5.0000000000000003e-02  2.3333333334999998e-01  0.0000000000000000e+00
-5.0000000000000003e-02  2.9999999999999993e-01  0.0000000000000000e+00
-5.0000000000000003e-02  3.6666666665000003e-01  0.0000000000000000e+00
-5.0000000000000003e-02  4.3333333335000002e-01  0.0000000000000000e+00
-5.0000000000000003e-02  5.0000000000000000e-01  0.0000000000000000e+00
-5.0000000000000003e-02  5.6666666664999987e-01  0.0000000000000000e+00
-5.0000000000000003e-02  6.3333333334999986e-01  0.0000000000000000e+00
-5.0000000000000003e-02  6.9999999999999984e-01  0.0000000000000000e+00
-5.0000000000000003e-02  7.6666666664999994e-01  0.0000000000000000e+00
-4.9999999999999996e-02  8.3333333334999982e-01  0.0000000000000000e+00
-5.0000000000000003e-02  8.9999999999999991e-01  0.0000000000000000e+00
-5.0000000000000003e-02  9.6666666664999990e-01  0.0000000000000000e+00
-3.3333333335000000e-02  9.9999999999999978e-01  0.0000000000000000e+00
0.0000000000000000e+00  1.0000000000000000e+00  0.0000000000000000e+00
3.3333333335000007e-02  1.0000000000000000e+00  0.0000000000000000e+00
5.0000000000000003e-02  3.3333333335000000e-02  0.0000000000000000e+00
5.0000000000000003e-02  9.9999999985000004e-02  0.0000000000000000e+00
5.0000000000000003e-02  1.6666666664999999e-01  0.0000000000000000e+00
5.0000000000000003e-02  2.3333333334999998e-01  0.0000000000000000e+00
5.0000000000000003e-02  2.9999999999999993e-01  0.0000000000000000e+00
5.0000000000000003e-02  3.6666666665000003e-01  0.0000000000000000e+00
5.0000000000000003e-02  4.3333333334999991e-01  0.0000000000000000e+00
5.0000000000000003e-02  5.0000000000000000e-01  0.0000000000000000e+00
5.0000000000000003e-02  5.6666666664999987e-01  0.0000000000000000e+00
5.0000000000000003e-02  6.3333333334999997e-01  0.0000000000000000e+00
5.0000000000000003e-02  6.9999999999999984e-01  0.0000000000000000e+00
5.0000000000000003e-02  7.6666666664999994e-01  0.0000000000000000e+00
5.0000000000000003e-02  8.3333333334999993e-01  0.0000000000000000e+00
5.0000000000000010e-02  8.9999999999999991e-01  0.0000000000000000e+00
5.0000000000000003e-02  9.6666666664999990e-01  0.0000000000000000e+00

CELLS 0 0


CELL_TYPES 0


POINT_DATA 33

VECTORS VertexNormals float

0.0000000000000000e+00 0.0000000000000000e+00 0
0.0000000000000000e+00 0.0000000000000000e+00 0
0.0000000000000000e+00 0.0000000000000000e+00 0
0.0000000000000000e+00 0.0000000000000000e+00 0
0.0000000000000000e+00 0.0000000000000000e+00 0
0.0000000000000000e+00 0.0000000000000000e+00 0
0.0000000000000000e+00 0.0000000000000000e+00 0
0.0000000000000000e+00 0.0000000000000000e+00 0
0.0000000000000000e+00 0.0000000000000000e+00 0
0.0000000000000000e+00 0.0000000000000000e+00 0
0.0000000000000000e+00 0.0000000000000000e+00 0
0.0000000000000000e+00 0.0000000000000000e+00 0
0.0000000000000000e+00 0.0000000000000000e+00 0
0.0000000000000000e+00 0.0000000000000000e+00 0
0.0000000000000000e+00 0.0000000000000000e+00 0
0.0000000000000000e+00 0.0000000000000000e+00 0
0.0000000000000000e+00 0.0000000000000000e+00 0
0.0000000000000000e+00 0.0000000000000000e+00 0
0.0000000000000000e+00 0.0000000000000000e+00 0
0.0000000000000000e+00 0.0000000000000000e+00 0
0.0000000000000000e+00 0.0000000000000000e+00 0
0.0000000000000000e+00 0.0000000000000000e+00 0
0.0000000000000000e+00 0.0000000000000000e+00 0
0.0000000000000000e+00 0.0000000000000000e+00 0
0.0000000000000000e+00 0.0000000000000000e+00 0
0.0000000000000000e+00 0.0000000000000000e+00 0
0.0000000000000000e+00 0.0000000000000000e+00 0
0.0000000000000000e+00 0.0000000000000000e+00 0
0.0000000000000000e+00 0.0000000000000000e+00 0
0.0000000000000000e+00 0.0000000000000000e+00 0
0.0000000000000000e+00 0.0000000000000000e+00 0
0.0000000000000000e+00 0.0000000000000000e+00 0
0.0000000000000000e+00 0.0000000000000000e+00 0

VECTORS Stress float
1.2648054782826092e+02 -4.7019850205334262e+00 0
1.2650418591407717e+02 -1.0248827850458380e+01 0
1.2610475633185527e+02 -1.5466779473865552e+01 0
1.2510638576274923e+02 -1.9275476633725894e+01 0
1.2338506017420042e+02 -2.1696276732821623e+01 0
1.2080924525384539e+02 -2.3208630397905658e+01 0
1.1756342958234058e+02 -2.3413025220943688e+01 0
1.1377162326692029e+02 -2.2481519755532592e+01 0
1.0921628523003734e+02 -2.1282018258272906e+01 0
1.0381977089663793e+02 -1.9510844066695064e+01 0
9.7216220510203371e+01 -1.7469255989065971e+01 0
8.8798480302060071e+01 -1.5499922008933627e+01 0
7.7349343504253056e+01 -1.3756965955934449e+01 0
6.1140980421785805e+01 -1.1379273135573550e+01 0
3.6153142378369303e+01 -6.7298372555961254e+00 0
1.8528594360049233e+01 9.3579808687778524e+01 0
1.4390252940307739e+01 7.3620119297444532e+01 0
1.0851146806177921e+01 5.5929474098435861e+01 0
2.1088715926131091e+01 -8.5255295581292334e-01 0
2.0847788105102737e+01 -1.7941783754707119e+00 0
2.0865469645951542e+01 -2.6798414579539465e+00 0
2.1384451579298499e+01 -3.3786175654664117e+00 0
2.2573927718031896e+01 -4.0174770688377954e+00 0
2.4402874856672426e+01 -4.6855006091366143e+00 0
2.6853453722307361e+01 -5.2641501800587411e+00 0
2.9795451482058766e+01 -5.7759046941640229e+00 0
3.2959910396162982e+01 -6.2581417709075637e+00 0
3.6054036427300126e+01 -6.6069255738709600e+00 0
3.8798072279099351e+01 -6.8113811667666804e+00 0
4.0999750087531773e+01 -7.0828466641816341e+00 0
4.2286906912768522e+01 -7.5803935465853440e+00 0
4.2839135922903388e+01 -8.0831131142185448e+00 0
4.2920958761041092e+01 -8.2721260864193678e+00 0

