# vtk DataFile Version 2.0

ASCII

DATASET UNSTRUCTURED_GRID

POINTS 33 double 

-5.00000000000000028e-02  3.33333333349999997e-02  0.00000000000000000e+00
-5.00000000000000028e-02  9.99999999850000182e-02  0.00000000000000000e+00
-5.00000000000000097e-02  1.66666666650000017e-01  0.00000000000000000e+00
-5.00000000000000028e-02  2.33333333350000005e-01  0.00000000000000000e+00
-5.00000000000000028e-02  2.99999999999999989e-01  0.00000000000000000e+00
-5.00000000000000097e-02  3.66666666650000028e-01  0.00000000000000000e+00
-5.00000000000000028e-02  4.33333333350000016e-01  0.00000000000000000e+00
-5.00000000000000028e-02  5.00000000000000000e-01  0.00000000000000000e+00
-5.00000000000000028e-02  5.66666666649999873e-01  0.00000000000000000e+00
-5.00000000000000028e-02  6.33333333349999861e-01  0.00000000000000000e+00
-5.00000000000000028e-02  6.99999999999999845e-01  0.00000000000000000e+00
-5.00000000000000028e-02  7.66666666649999828e-01  0.00000000000000000e+00
-5.00000000000000028e-02  8.33333333349999927e-01  0.00000000000000000e+00
-5.00000000000000028e-02  8.99999999999999800e-01  0.00000000000000000e+00
-5.00000000000000028e-02  9.66666666650000006e-01  0.00000000000000000e+00
-3.33333333349999997e-02  1.00000000000000000e+00  0.00000000000000000e+00
0.00000000000000000e+00  1.00000000000000000e+00  0.00000000000000000e+00
3.33333333349999927e-02  9.99999999999999778e-01  0.00000000000000000e+00
5.00000000000000028e-02  3.33333333349999997e-02  0.00000000000000000e+00
5.00000000000000028e-02  9.99999999850000043e-02  0.00000000000000000e+00
5.00000000000000097e-02  1.66666666650000017e-01  0.00000000000000000e+00
5.00000000000000028e-02  2.33333333350000005e-01  0.00000000000000000e+00
5.00000000000000028e-02  2.99999999999999989e-01  0.00000000000000000e+00
5.00000000000000028e-02  3.66666666650000028e-01  0.00000000000000000e+00
5.00000000000000028e-02  4.33333333350000016e-01  0.00000000000000000e+00
5.00000000000000028e-02  5.00000000000000000e-01  0.00000000000000000e+00
5.00000000000000028e-02  5.66666666649999873e-01  0.00000000000000000e+00
5.00000000000000028e-02  6.33333333349999861e-01  0.00000000000000000e+00
5.00000000000000028e-02  6.99999999999999845e-01  0.00000000000000000e+00
5.00000000000000028e-02  7.66666666649999828e-01  0.00000000000000000e+00
5.00000000000000028e-02  8.33333333349999927e-01  0.00000000000000000e+00
5.00000000000000028e-02  8.99999999999999800e-01  0.00000000000000000e+00
5.00000000000000028e-02  9.66666666649999784e-01  0.00000000000000000e+00

CELLS 0 0


CELL_TYPES 0


POINT_DATA 33

VECTORS VertexNormals double

0.00000000000000000e+00 0.00000000000000000e+00 0
0.00000000000000000e+00 0.00000000000000000e+00 0
0.00000000000000000e+00 0.00000000000000000e+00 0
0.00000000000000000e+00 0.00000000000000000e+00 0
0.00000000000000000e+00 0.00000000000000000e+00 0
0.00000000000000000e+00 0.00000000000000000e+00 0
0.00000000000000000e+00 0.00000000000000000e+00 0
0.00000000000000000e+00 0.00000000000000000e+00 0
0.00000000000000000e+00 0.00000000000000000e+00 0
0.00000000000000000e+00 0.00000000000000000e+00 0
0.00000000000000000e+00 0.00000000000000000e+00 0
0.00000000000000000e+00 0.00000000000000000e+00 0
0.00000000000000000e+00 0.00000000000000000e+00 0
0.00000000000000000e+00 0.00000000000000000e+00 0
0.00000000000000000e+00 0.00000000000000000e+00 0
0.00000000000000000e+00 0.00000000000000000e+00 0
0.00000000000000000e+00 0.00000000000000000e+00 0
0.00000000000000000e+00 0.00000000000000000e+00 0
0.00000000000000000e+00 0.00000000000000000e+00 0
0.00000000000000000e+00 0.00000000000000000e+00 0
0.00000000000000000e+00 0.00000000000000000e+00 0
0.00000000000000000e+00 0.00000000000000000e+00 0
0.00000000000000000e+00 0.00000000000000000e+00 0
0.00000000000000000e+00 0.00000000000000000e+00 0
0.00000000000000000e+00 0.00000000000000000e+00 0
0.00000000000000000e+00 0.00000000000000000e+00 0
0.00000000000000000e+00 0.00000000000000000e+00 0
0.00000000000000000e+00 0.00000000000000000e+00 0
0.00000000000000000e+00 0.00000000000000000e+00 0
0.00000000000000000e+00 0.00000000000000000e+00 0
0.00000000000000000e+00 0.00000000000000000e+00 0
0.00000000000000000e+00 0.00000000000000000e+00 0
0.00000000000000000e+00 0.00000000000000000e+00 0

VECTORS Force double
9.17887717220712851e+00 -6.46054106975153114e-03 0
9.19955726100390692e+00 -3.71005308814668852e-02 0
9.26249034486735923e+00 -5.26111765931615155e-02 0
9.35928526118084925e+00 -4.49983717100803371e-02 0
9.47833065296268273e+00 -7.30201683506332550e-03 0
9.61062496632276364e+00 6.56759841123886190e-02 0
9.74908645016794928e+00 1.79805492957885948e-01 0
9.88712640242838425e+00 3.42945869907410494e-01 0
1.00184865708613753e+01 5.67197039307732909e-01 0
1.01373883847954342e+01 8.72516782398599089e-01 0
1.02358007457996116e+01 1.29102965942722792e+00 0
1.03185572372327528e+01 1.87010873415874457e+00 0
1.05709414168419471e+01 2.67571180309820056e+00 0
1.16790024943953643e+01 3.81196085647246008e+00 0
1.46426722414428383e+01 4.64468074563550815e+00 0
3.67275311645992542e+00 8.15169079162706467e+00 0
3.31009446804981566e+00 6.50956083916214290e+00 0
3.16003452670839602e+00 4.89099954430665207e+00 0
3.73450302755134533e+00 -3.65672442628173309e-03 0
3.69398129187133284e+00 1.71726663906045024e-03 0
3.64783429768933631e+00 3.55511555415083252e-02 0
3.61713413192378486e+00 9.31160730620726185e-02 0
3.61167305209228706e+00 1.69104170222419609e-01 0
3.63737788352380642e+00 2.59579883925065757e-01 0
3.69942162125403939e+00 3.62002088708509528e-01 0
3.80347375636684459e+00 4.75132117091943085e-01 0
3.95743573714149344e+00 5.98937886924100438e-01 0
4.17425698834357117e+00 7.34333197984732067e-01 0
4.47403447618316719e+00 8.83518725651618486e-01 0
4.89521090625760458e+00 1.05358072201850961e+00 0
5.60095951448152185e+00 1.25944583393847198e+00 0
7.15994672996246440e+00 1.48042448853577935e+00 0
1.04133344589881283e+01 2.20529403826465131e+00 0

VECTORS Displacement double
8.87913981817211673e-06 1.44786356964088743e-05 0
4.81958532287067717e-05 4.21027782243011339e-05 0
1.22950551503171886e-04 6.75730773890489028e-05 0
2.30031169822309325e-04 9.08744652552291159e-05 0
3.66835388315750466e-04 1.12336764403239006e-04 0
5.31203569434931340e-04 1.31594483670246365e-04 0
7.19658220471673985e-04 1.48120966903674678e-04 0
9.28197294011115655e-04 1.61816390939179504e-04 0
1.15328624680795808e-03 1.72655056796138315e-04 0
1.39078037296502940e-03 1.80294758296294170e-04 0
1.63609892057206877e-03 1.84896569651744978e-04 0
1.88541883827830553e-03 1.87363235118766241e-04 0
2.13665062781243217e-03 1.88636210459265359e-04 0
2.38888085345770025e-03 1.89376806369566413e-04 0
2.64180821799953492e-03 1.89797885754663042e-04 0
2.76825349751836074e-03 1.26585955275508458e-04 0
2.76822929228325021e-03 1.01814579058590748e-07 0
2.76822474289575675e-03 -1.26352989432013709e-04 0
8.86784445293888513e-06 -1.44884567538867228e-05 0
4.81583784350238459e-05 -4.21129538242330222e-05 0
1.22924306782010281e-04 -6.75532722813748101e-05 0
2.29988304505969791e-04 -9.08386431924976891e-05 0
3.66794582233213504e-04 -1.12269146554213594e-04 0
5.31160982076082271e-04 -1.31510647267112378e-04 0
7.19621584718835132e-04 -1.48026870629523413e-04 0
9.28188106521719001e-04 -1.61723089265055373e-04 0
1.15327055991753125e-03 -1.72575465179136808e-04 0
1.39074818616668561e-03 -1.80240114044653165e-04 0
1.63605792286988707e-03 -1.84855323973887530e-04 0
1.88539003624199966e-03 -1.87299702377667377e-04 0
2.13661711823324432e-03 -1.88553337035858310e-04 0
2.38885392281813248e-03 -1.89247540757103700e-04 0
2.64176515851955286e-03 -1.89574982523206347e-04 0

