# vtk DataFile Version 2.0

ASCII

DATASET UNSTRUCTURED_GRID

POINTS 33 double 

-5.00000000000000028e-02  3.33333333349999997e-02  0.00000000000000000e+00
-5.00000000000000028e-02  9.99999999850000182e-02  0.00000000000000000e+00
-5.00000000000000097e-02  1.66666666650000017e-01  0.00000000000000000e+00
-5.00000000000000028e-02  2.33333333350000005e-01  0.00000000000000000e+00
-5.00000000000000028e-02  2.99999999999999989e-01  0.00000000000000000e+00
-5.00000000000000097e-02  3.66666666650000028e-01  0.00000000000000000e+00
-5.00000000000000028e-02  4.33333333350000016e-01  0.00000000000000000e+00
-5.00000000000000028e-02  5.00000000000000000e-01  0.00000000000000000e+00
-5.00000000000000028e-02  5.66666666649999873e-01  0.00000000000000000e+00
-5.00000000000000028e-02  6.33333333349999861e-01  0.00000000000000000e+00
-5.00000000000000028e-02  6.99999999999999845e-01  0.00000000000000000e+00
-5.00000000000000028e-02  7.66666666649999828e-01  0.00000000000000000e+00
-5.00000000000000028e-02  8.33333333349999927e-01  0.00000000000000000e+00
-5.00000000000000028e-02  8.99999999999999800e-01  0.00000000000000000e+00
-5.00000000000000028e-02  9.66666666650000006e-01  0.00000000000000000e+00
-3.33333333349999997e-02  1.00000000000000000e+00  0.00000000000000000e+00
0.00000000000000000e+00  1.00000000000000000e+00  0.00000000000000000e+00
3.33333333349999927e-02  9.99999999999999778e-01  0.00000000000000000e+00
5.00000000000000028e-02  3.33333333349999997e-02  0.00000000000000000e+00
5.00000000000000028e-02  9.99999999850000043e-02  0.00000000000000000e+00
5.00000000000000097e-02  1.66666666650000017e-01  0.00000000000000000e+00
5.00000000000000028e-02  2.33333333350000005e-01  0.00000000000000000e+00
5.00000000000000028e-02  2.99999999999999989e-01  0.00000000000000000e+00
5.00000000000000028e-02  3.66666666650000028e-01  0.00000000000000000e+00
5.00000000000000028e-02  4.33333333350000016e-01  0.00000000000000000e+00
5.00000000000000028e-02  5.00000000000000000e-01  0.00000000000000000e+00
5.00000000000000028e-02  5.66666666649999873e-01  0.00000000000000000e+00
5.00000000000000028e-02  6.33333333349999861e-01  0.00000000000000000e+00
5.00000000000000028e-02  6.99999999999999845e-01  0.00000000000000000e+00
5.00000000000000028e-02  7.66666666649999828e-01  0.00000000000000000e+00
5.00000000000000028e-02  8.33333333349999927e-01  0.00000000000000000e+00
5.00000000000000028e-02  8.99999999999999800e-01  0.00000000000000000e+00
5.00000000000000028e-02  9.66666666649999784e-01  0.00000000000000000e+00

CELLS 0 0


CELL_TYPES 0


POINT_DATA 33

VECTORS VertexNormals double

0.00000000000000000e+00 0.00000000000000000e+00 0
0.00000000000000000e+00 0.00000000000000000e+00 0
0.00000000000000000e+00 0.00000000000000000e+00 0
0.00000000000000000e+00 0.00000000000000000e+00 0
0.00000000000000000e+00 0.00000000000000000e+00 0
0.00000000000000000e+00 0.00000000000000000e+00 0
0.00000000000000000e+00 0.00000000000000000e+00 0
0.00000000000000000e+00 0.00000000000000000e+00 0
0.00000000000000000e+00 0.00000000000000000e+00 0
0.00000000000000000e+00 0.00000000000000000e+00 0
0.00000000000000000e+00 0.00000000000000000e+00 0
0.00000000000000000e+00 0.00000000000000000e+00 0
0.00000000000000000e+00 0.00000000000000000e+00 0
0.00000000000000000e+00 0.00000000000000000e+00 0
0.00000000000000000e+00 0.00000000000000000e+00 0
0.00000000000000000e+00 0.00000000000000000e+00 0
0.00000000000000000e+00 0.00000000000000000e+00 0
0.00000000000000000e+00 0.00000000000000000e+00 0
0.00000000000000000e+00 0.00000000000000000e+00 0
0.00000000000000000e+00 0.00000000000000000e+00 0
0.00000000000000000e+00 0.00000000000000000e+00 0
0.00000000000000000e+00 0.00000000000000000e+00 0
0.00000000000000000e+00 0.00000000000000000e+00 0
0.00000000000000000e+00 0.00000000000000000e+00 0
0.00000000000000000e+00 0.00000000000000000e+00 0
0.00000000000000000e+00 0.00000000000000000e+00 0
0.00000000000000000e+00 0.00000000000000000e+00 0
0.00000000000000000e+00 0.00000000000000000e+00 0
0.00000000000000000e+00 0.00000000000000000e+00 0
0.00000000000000000e+00 0.00000000000000000e+00 0
0.00000000000000000e+00 0.00000000000000000e+00 0
0.00000000000000000e+00 0.00000000000000000e+00 0
0.00000000000000000e+00 0.00000000000000000e+00 0

VECTORS Force double
9.14407503581851699e+00 -5.94425727956805587e-03 0
9.16476079317783565e+00 -3.61664327243781808e-02 0
9.22797971570024345e+00 -5.14978068030522915e-02 0
9.32498759823577039e+00 -4.38115774466515256e-02 0
9.44408795285694858e+00 -5.98362660852403729e-03 0
9.57627932834598639e+00 6.72229443406412303e-02 0
9.71452510372049005e+00 1.81625012925443335e-01 0
9.85233744130165867e+00 3.45012174303530206e-01 0
9.98350658229181320e+00 5.69390311902840618e-01 0
1.01022320782729604e+01 8.74749433471379789e-01 0
1.02005311127241765e+01 1.29332602296138544e+00 0
1.02832542605001613e+01 1.87255224318094671e+00 0
1.05357802036374206e+01 2.67848379692231031e+00 0
1.16448139219267208e+01 3.81542726455532843e+00 0
1.46109342328656453e+01 4.64829837476496444e+00 0
3.67709394439476878e+00 8.18220809289184459e+00 0
3.31418186323273822e+00 6.53892629320273322e+00 0
3.16423459921252093e+00 4.91873329579606722e+00 0
3.78629861713477123e+00 -3.87443880933373589e-03 0
3.74539380180438153e+00 1.55646736479419547e-03 0
3.69916174390023889e+00 3.55362114955765016e-02 0
3.66852159872819872e+00 9.34230677217934707e-02 0
3.66312960248771136e+00 1.69935570488171761e-01 0
3.68884089934943749e+00 2.61076199916571772e-01 0
3.75080809226328205e+00 3.64142442802792288e-01 0
3.85478366086200541e+00 4.77744538119966977e-01 0
4.00877793574841945e+00 6.01765806522571722e-01 0
4.22583952522147399e+00 7.37133801431129165e-01 0
4.52617785896865499e+00 8.86135168235274495e-01 0
4.94827238810206271e+00 1.05594724277416918e+00 0
5.65545127916565438e+00 1.26157377160633311e+00 0
7.21714231432001529e+00 1.48235355022518078e+00 0
1.04758073783509591e+01 2.20764418284159669e+00 0

VECTORS Displacement double
7.90616972870253007e-06 1.33655259325265451e-05 0
4.37142212581360619e-05 3.95790835639546942e-05 0
1.13565771049904522e-04 6.44307321348012215e-05 0
2.15210392197527026e-04 8.72935516948277401e-05 0
3.45600693038362753e-04 1.07763042588509642e-04 0
5.01186457934201771e-04 1.25495184830337196e-04 0
6.78021601769585557e-04 1.40470215004630543e-04 0
8.72567426087000517e-04 1.53347896037067075e-04 0
1.08283569332924805e-03 1.64621323230655886e-04 0
1.30683451130505428e-03 1.73842370572132909e-04 0
1.54110730344687689e-03 1.80498404564592132e-04 0
1.78218759135814514e-03 1.85072961007775412e-04 0
2.02783862243367287e-03 1.88112926552047751e-04 0
2.27630012815183917e-03 1.89912196027480659e-04 0
2.52618734500562004e-03 1.90728704950201059e-04 0
2.65114353127132241e-03 1.28325443170787708e-04 0
2.65106177239403861e-03 3.38978285307280130e-06 0
2.65106277212494692e-03 -1.21520755218762665e-04 0
7.70961588231209910e-06 -1.30703681898537295e-05 0
4.35127012174414251e-05 -3.87738722473987218e-05 0
1.13336408513704486e-04 -6.30818982963103034e-05 0
2.14975098031638316e-04 -8.53528072009053930e-05 0
3.45362253459167599e-04 -1.05238521542376192e-04 0
5.00959146401276233e-04 -1.22418180766907525e-04 0
6.77797803512971927e-04 -1.36838029279685278e-04 0
8.72347712174073825e-04 -1.49176605390815978e-04 0
1.08261486031067640e-03 -1.59924181808770928e-04 0
1.30664296520669582e-03 -1.68658745762593684e-04 0
1.54093493874629629e-03 -1.74910747806789058e-04 0
1.78203016596979692e-03 -1.79133202313436966e-04 0
2.02771898562410314e-03 -1.81850503885830497e-04 0
2.27616954081617763e-03 -1.83370980563950079e-04 0
2.52609571101033645e-03 -1.83978169283365272e-04 0

