# vtk DataFile Version 2.0

ASCII

DATASET UNSTRUCTURED_GRID

POINTS 33 double 

-5.00000000000000028e-02  3.33333333349999997e-02  0.00000000000000000e+00
-5.00000000000000028e-02  9.99999999850000182e-02  0.00000000000000000e+00
-5.00000000000000097e-02  1.66666666650000017e-01  0.00000000000000000e+00
-5.00000000000000028e-02  2.33333333350000005e-01  0.00000000000000000e+00
-5.00000000000000028e-02  2.99999999999999989e-01  0.00000000000000000e+00
-5.00000000000000097e-02  3.66666666650000028e-01  0.00000000000000000e+00
-5.00000000000000028e-02  4.33333333350000016e-01  0.00000000000000000e+00
-5.00000000000000028e-02  5.00000000000000000e-01  0.00000000000000000e+00
-5.00000000000000028e-02  5.66666666649999873e-01  0.00000000000000000e+00
-5.00000000000000028e-02  6.33333333349999861e-01  0.00000000000000000e+00
-5.00000000000000028e-02  6.99999999999999845e-01  0.00000000000000000e+00
-5.00000000000000028e-02  7.66666666649999828e-01  0.00000000000000000e+00
-5.00000000000000028e-02  8.33333333349999927e-01  0.00000000000000000e+00
-5.00000000000000028e-02  8.99999999999999800e-01  0.00000000000000000e+00
-5.00000000000000028e-02  9.66666666650000006e-01  0.00000000000000000e+00
-3.33333333349999997e-02  1.00000000000000000e+00  0.00000000000000000e+00
0.00000000000000000e+00  1.00000000000000000e+00  0.00000000000000000e+00
3.33333333349999927e-02  9.99999999999999778e-01  0.00000000000000000e+00
5.00000000000000028e-02  3.33333333349999997e-02  0.00000000000000000e+00
5.00000000000000028e-02  9.99999999850000043e-02  0.00000000000000000e+00
5.00000000000000097e-02  1.66666666650000017e-01  0.00000000000000000e+00
5.00000000000000028e-02  2.33333333350000005e-01  0.00000000000000000e+00
5.00000000000000028e-02  2.99999999999999989e-01  0.00000000000000000e+00
5.00000000000000028e-02  3.66666666650000028e-01  0.00000000000000000e+00
5.00000000000000028e-02  4.33333333350000016e-01  0.00000000000000000e+00
5.00000000000000028e-02  5.00000000000000000e-01  0.00000000000000000e+00
5.00000000000000028e-02  5.66666666649999873e-01  0.00000000000000000e+00
5.00000000000000028e-02  6.33333333349999861e-01  0.00000000000000000e+00
5.00000000000000028e-02  6.99999999999999845e-01  0.00000000000000000e+00
5.00000000000000028e-02  7.66666666649999828e-01  0.00000000000000000e+00
5.00000000000000028e-02  8.33333333349999927e-01  0.00000000000000000e+00
5.00000000000000028e-02  8.99999999999999800e-01  0.00000000000000000e+00
5.00000000000000028e-02  9.66666666649999784e-01  0.00000000000000000e+00

CELLS 0 0


CELL_TYPES 0


POINT_DATA 33

VECTORS VertexNormals double

0.00000000000000000e+00 0.00000000000000000e+00 0
0.00000000000000000e+00 0.00000000000000000e+00 0
0.00000000000000000e+00 0.00000000000000000e+00 0
0.00000000000000000e+00 0.00000000000000000e+00 0
0.00000000000000000e+00 0.00000000000000000e+00 0
0.00000000000000000e+00 0.00000000000000000e+00 0
0.00000000000000000e+00 0.00000000000000000e+00 0
0.00000000000000000e+00 0.00000000000000000e+00 0
0.00000000000000000e+00 0.00000000000000000e+00 0
0.00000000000000000e+00 0.00000000000000000e+00 0
0.00000000000000000e+00 0.00000000000000000e+00 0
0.00000000000000000e+00 0.00000000000000000e+00 0
0.00000000000000000e+00 0.00000000000000000e+00 0
0.00000000000000000e+00 0.00000000000000000e+00 0
0.00000000000000000e+00 0.00000000000000000e+00 0
0.00000000000000000e+00 0.00000000000000000e+00 0
0.00000000000000000e+00 0.00000000000000000e+00 0
0.00000000000000000e+00 0.00000000000000000e+00 0
0.00000000000000000e+00 0.00000000000000000e+00 0
0.00000000000000000e+00 0.00000000000000000e+00 0
0.00000000000000000e+00 0.00000000000000000e+00 0
0.00000000000000000e+00 0.00000000000000000e+00 0
0.00000000000000000e+00 0.00000000000000000e+00 0
0.00000000000000000e+00 0.00000000000000000e+00 0
0.00000000000000000e+00 0.00000000000000000e+00 0
0.00000000000000000e+00 0.00000000000000000e+00 0
0.00000000000000000e+00 0.00000000000000000e+00 0
0.00000000000000000e+00 0.00000000000000000e+00 0
0.00000000000000000e+00 0.00000000000000000e+00 0
0.00000000000000000e+00 0.00000000000000000e+00 0
0.00000000000000000e+00 0.00000000000000000e+00 0
0.00000000000000000e+00 0.00000000000000000e+00 0
0.00000000000000000e+00 0.00000000000000000e+00 0

VECTORS Force double
8.80740439355154869e+00 -6.31126710791668835e-03 0
8.82806325406548531e+00 -3.55265105954711280e-02 0
8.89098612640495567e+00 -4.91882583221376693e-02 0
8.98807323059280705e+00 -3.96895371828683702e-02 0
9.10759895561582766e+00 -2.60894958727542897e-05 0
9.24064415721465338e+00 7.50174050474580190e-02 0
9.38008636310671839e+00 1.91181591875896589e-01 0
9.51913049320691407e+00 3.56347115532053782e-01 0
9.65150619324844783e+00 5.82821889858155862e-01 0
9.77158532912591937e+00 8.90707564170992061e-01 0
9.87112908579118553e+00 1.31225693529597520e+00 0
9.95447171445498569e+00 1.89533514310377371e+00 0
1.02079530089553536e+01 2.70685771173041356e+00 0
1.13240806717833848e+01 3.85362455678062465e+00 0
1.43120665217300811e+01 4.69371783557806133e+00 0
3.70329331385728100e+00 8.45828493677660376e+00 0
3.34239262689601446e+00 6.81294508565190693e+00 0
3.19924473599651771e+00 5.18447256536745549e+00 0
4.24555181703243800e+00 -3.46471030763410934e-03 0
4.20210311859061747e+00 2.29816554671354078e-03 0
4.15186648909545575e+00 3.89389715603825973e-02 0
4.11811586284107811e+00 1.01263127722493421e-01 0
4.11156163470292935e+00 1.83265052508985254e-01 0
4.13856427152218753e+00 2.80270796915612908e-01 0
4.20430018812739892e+00 3.89045536459062369e-01 0
4.31410167799773081e+00 5.07723412473375713e-01 0
4.47552699979454172e+00 6.35788939927836805e-01 0
4.70124950750413628e+00 7.73928488193786235e-01 0
5.01096171234381682e+00 9.24377259371376159e-01 0
5.44281603290189153e+00 1.09445356942000216e+00 0
6.16188061685190025e+00 1.29956801382576970e+00 0
7.74488687344375304e+00 1.51941144268314110e+00 0
1.10405810284642918e+01 2.24629637863103815e+00 0

VECTORS Displacement double
8.32239939208716440e-06 1.17912108454884730e-05 0
4.05449234715639720e-05 3.15513696604843348e-05 0
9.59570056445818102e-05 4.75601497266918996e-05 0
1.70430515074137672e-04 6.08113241498640865e-05 0
2.61110679218400814e-04 7.19121842257118462e-05 0
3.65206490301799892e-04 8.08964792413574741e-05 0
4.79747309309073295e-04 8.79449451390755885e-05 0
6.02544151663528304e-04 9.35637428481293348e-05 0
7.32044751451142359e-04 9.77116623999452113e-05 0
8.65913017662765837e-04 1.00271285738881127e-04 0
1.00204939475751756e-03 1.01726684873200938e-04 0
1.13937259816189831e-03 1.02699840702447857e-04 0
1.27777360848018665e-03 1.03600219511731977e-04 0
1.41742558654938582e-03 1.04284222712257876e-04 0
1.55755053711524399e-03 1.04480416709174792e-04 0
1.62747937036893065e-03 6.95015844611508607e-05 0
1.62746810676680240e-03 -4.68975619904705566e-07 0
1.62744354532122449e-03 -7.04155143307809910e-05 0
8.35805797165052106e-06 -1.19283042343460321e-05 0
4.06060252778283844e-05 -3.18988426547375779e-05 0
9.60208472343235698e-05 -4.81497511706366205e-05 0
1.70488758015758992e-04 -6.16255075136763552e-05 0
2.61145375919494326e-04 -7.28997079234652856e-05 0
3.65219822721860163e-04 -8.19899239883891280e-05 0
4.79749601367449941e-04 -8.91019114614425211e-05 0
6.02542912049583825e-04 -9.47807010760977125e-05 0
7.32051376448381421e-04 -9.89814542125301431e-05 0
8.65910263244331182e-04 -1.01564457128170351e-04 0
1.00202050510800897e-03 -1.02987846383286531e-04 0
1.13933271632697176e-03 -1.03895199483099344e-04 0
1.27774537718156555e-03 -1.04742523573362746e-04 0
1.41738994646736153e-03 -1.05308783784481574e-04 0
1.55751391275178470e-03 -1.05408528428795991e-04 0

