# vtk DataFile Version 2.0

ASCII

DATASET UNSTRUCTURED_GRID

POINTS 33 double 

-5.00000000000000028e-02  3.33333333349999997e-02  0.00000000000000000e+00
-5.00000000000000028e-02  9.99999999850000182e-02  0.00000000000000000e+00
-5.00000000000000097e-02  1.66666666650000017e-01  0.00000000000000000e+00
-5.00000000000000028e-02  2.33333333350000005e-01  0.00000000000000000e+00
-5.00000000000000028e-02  2.99999999999999989e-01  0.00000000000000000e+00
-5.00000000000000097e-02  3.66666666650000028e-01  0.00000000000000000e+00
-5.00000000000000028e-02  4.33333333350000016e-01  0.00000000000000000e+00
-5.00000000000000028e-02  5.00000000000000000e-01  0.00000000000000000e+00
-5.00000000000000028e-02  5.66666666649999873e-01  0.00000000000000000e+00
-5.00000000000000028e-02  6.33333333349999861e-01  0.00000000000000000e+00
-5.00000000000000028e-02  6.99999999999999845e-01  0.00000000000000000e+00
-5.00000000000000028e-02  7.66666666649999828e-01  0.00000000000000000e+00
-5.00000000000000028e-02  8.33333333349999927e-01  0.00000000000000000e+00
-5.00000000000000028e-02  8.99999999999999800e-01  0.00000000000000000e+00
-5.00000000000000028e-02  9.66666666650000006e-01  0.00000000000000000e+00
-3.33333333349999997e-02  1.00000000000000000e+00  0.00000000000000000e+00
0.00000000000000000e+00  1.00000000000000000e+00  0.00000000000000000e+00
3.33333333349999927e-02  9.99999999999999778e-01  0.00000000000000000e+00
5.00000000000000028e-02  3.33333333349999997e-02  0.00000000000000000e+00
5.00000000000000028e-02  9.99999999850000043e-02  0.00000000000000000e+00
5.00000000000000097e-02  1.66666666650000017e-01  0.00000000000000000e+00
5.00000000000000028e-02  2.33333333350000005e-01  0.00000000000000000e+00
5.00000000000000028e-02  2.99999999999999989e-01  0.00000000000000000e+00
5.00000000000000028e-02  3.66666666650000028e-01  0.00000000000000000e+00
5.00000000000000028e-02  4.33333333350000016e-01  0.00000000000000000e+00
5.00000000000000028e-02  5.00000000000000000e-01  0.00000000000000000e+00
5.00000000000000028e-02  5.66666666649999873e-01  0.00000000000000000e+00
5.00000000000000028e-02  6.33333333349999861e-01  0.00000000000000000e+00
5.00000000000000028e-02  6.99999999999999845e-01  0.00000000000000000e+00
5.00000000000000028e-02  7.66666666649999828e-01  0.00000000000000000e+00
5.00000000000000028e-02  8.33333333349999927e-01  0.00000000000000000e+00
5.00000000000000028e-02  8.99999999999999800e-01  0.00000000000000000e+00
5.00000000000000028e-02  9.66666666649999784e-01  0.00000000000000000e+00

CELLS 0 0


CELL_TYPES 0


POINT_DATA 33

VECTORS VertexNormals double

0.00000000000000000e+00 0.00000000000000000e+00 0
0.00000000000000000e+00 0.00000000000000000e+00 0
0.00000000000000000e+00 0.00000000000000000e+00 0
0.00000000000000000e+00 0.00000000000000000e+00 0
0.00000000000000000e+00 0.00000000000000000e+00 0
0.00000000000000000e+00 0.00000000000000000e+00 0
0.00000000000000000e+00 0.00000000000000000e+00 0
0.00000000000000000e+00 0.00000000000000000e+00 0
0.00000000000000000e+00 0.00000000000000000e+00 0
0.00000000000000000e+00 0.00000000000000000e+00 0
0.00000000000000000e+00 0.00000000000000000e+00 0
0.00000000000000000e+00 0.00000000000000000e+00 0
0.00000000000000000e+00 0.00000000000000000e+00 0
0.00000000000000000e+00 0.00000000000000000e+00 0
0.00000000000000000e+00 0.00000000000000000e+00 0
0.00000000000000000e+00 0.00000000000000000e+00 0
0.00000000000000000e+00 0.00000000000000000e+00 0
0.00000000000000000e+00 0.00000000000000000e+00 0
0.00000000000000000e+00 0.00000000000000000e+00 0
0.00000000000000000e+00 0.00000000000000000e+00 0
0.00000000000000000e+00 0.00000000000000000e+00 0
0.00000000000000000e+00 0.00000000000000000e+00 0
0.00000000000000000e+00 0.00000000000000000e+00 0
0.00000000000000000e+00 0.00000000000000000e+00 0
0.00000000000000000e+00 0.00000000000000000e+00 0
0.00000000000000000e+00 0.00000000000000000e+00 0
0.00000000000000000e+00 0.00000000000000000e+00 0
0.00000000000000000e+00 0.00000000000000000e+00 0
0.00000000000000000e+00 0.00000000000000000e+00 0
0.00000000000000000e+00 0.00000000000000000e+00 0
0.00000000000000000e+00 0.00000000000000000e+00 0
0.00000000000000000e+00 0.00000000000000000e+00 0
0.00000000000000000e+00 0.00000000000000000e+00 0

VECTORS Force double
8.61044707158389144e+00 -4.24567532924543904e-03 0
8.63390988380287361e+00 -3.25577736775575430e-02 0
8.70345435447720561e+00 -4.42058566081589485e-02 0
8.80871526162050955e+00 -3.05001323908447759e-02 0
8.93680590693783472e+00 1.60239938253286737e-02 0
9.07749174748074772e+00 1.00580429756399067e-01 0
9.22253146827670811e+00 2.28910539310798189e-01 0
9.36409538120611451e+00 4.08874844380312186e-01 0
9.49479295768930953e+00 6.52657001810061699e-01 0
9.60766439591530741e+00 9.80508618278822186e-01 0
9.69301394633130720e+00 1.42521333066001787e+00 0
9.75382720435097283e+00 2.03582902889864847e+00 0
9.98048346275834675e+00 2.88019940685491171e+00 0
1.10887990535137302e+01 4.07044088631956136e+00 0
1.41028953749028716e+01 4.93975238127270710e+00 0
3.81484168629752229e+00 9.18907795207567801e+00 0
3.44971869455784130e+00 7.46799355237483375e+00 0
3.31570821225999213e+00 5.75097752217952696e+00 0
4.51978450082193639e+00 -4.73080363680252001e-03 0
4.45607226079415941e+00 9.66601787545987197e-03 0
4.38920205197700586e+00 6.77847416396025471e-02 0
4.35266469098694841e+00 1.59993422065528357e-01 0
4.35982546002691240e+00 2.75199534944466973e-01 0
4.41685644048552906e+00 4.04860800197419768e-01 0
4.52756956108984809e+00 5.42921857312699263e-01 0
4.69542639404178708e+00 6.85615344945297300e-01 0
4.92578311142260805e+00 8.31275222115149481e-01 0
5.22906825060334857e+00 9.79897470455785569e-01 0
5.62315301044506644e+00 1.13328997322009073e+00 0
6.14552340582268997e+00 1.29871672407257921e+00 0
6.96675845066887689e+00 1.49183340117104191e+00 0
8.68620017717468684e+00 1.69109235175173733e+00 0
1.21879187547839898e+01 2.40472869709862724e+00 0

VECTORS Displacement double
2.39152771199317422e-06 3.66927731951971078e-06 0
1.19812107422171741e-05 1.05025136992047682e-05 0
2.98399618743439243e-05 1.65944981547803968e-05 0
5.49318852205635515e-05 2.16959750819897419e-05 0
8.55033572965685230e-05 2.59350250727783481e-05 0
1.20813312586668000e-04 2.96935011258867640e-05 0
1.60379948115055830e-04 3.31310649120423060e-05 0
2.03913093345753637e-04 3.64789825572996271e-05 0
2.51725378628951007e-04 3.97047060881020882e-05 0
3.03232436440292719e-04 4.24571274882856790e-05 0
3.57640131311417954e-04 4.48987694144101441e-05 0
4.15075132505691091e-04 4.73617973108845066e-05 0
4.75575050220476865e-04 4.93876975089839750e-05 0
5.38198513711660165e-04 5.05363003987402306e-05 0
6.01421314246610274e-04 5.08907722495731697e-05 0
6.32930512026894272e-04 3.51586542860730927e-05 0
6.32898054134606097e-04 3.63727670077534481e-06 0
6.32870392801560921e-04 -2.78829529864814578e-05 0
2.17533076340072372e-06 -3.36754181678446730e-06 0
1.17415861199362582e-05 -9.63437512886583286e-06 0
2.96137762219770103e-05 -1.51031254609199997e-05 0
5.46732312333342074e-05 -1.95567928669933535e-05 0
8.52462748766807872e-05 -2.31481376518845868e-05 0
1.20563863409360979e-04 -2.62846834961167376e-05 0
1.60140977080405051e-04 -2.91176651534277957e-05 0
2.03713807184033514e-04 -3.18925724256089333e-05 0
2.51510971030918307e-04 -3.45758949679154034e-05 0
3.03030537739157379e-04 -3.68335615084446107e-05 0
3.57453390075185892e-04 -3.88334037759879925e-05 0
4.14907900266448470e-04 -4.08928122598338029e-05 0
4.75459697244105025e-04 -4.25833027421084839e-05 0
5.38100764973452545e-04 -4.34634750646872080e-05 0
6.01355839808326753e-04 -4.36559745331729446e-05 0

