# vtk DataFile Version 2.0

ASCII

DATASET UNSTRUCTURED_GRID

POINTS 33 double 

-5.00000000000000028e-02  3.33333333349999997e-02  0.00000000000000000e+00
-5.00000000000000028e-02  9.99999999850000182e-02  0.00000000000000000e+00
-5.00000000000000097e-02  1.66666666650000017e-01  0.00000000000000000e+00
-5.00000000000000028e-02  2.33333333350000005e-01  0.00000000000000000e+00
-5.00000000000000028e-02  2.99999999999999989e-01  0.00000000000000000e+00
-5.00000000000000097e-02  3.66666666650000028e-01  0.00000000000000000e+00
-5.00000000000000028e-02  4.33333333350000016e-01  0.00000000000000000e+00
-5.00000000000000028e-02  5.00000000000000000e-01  0.00000000000000000e+00
-5.00000000000000028e-02  5.66666666649999873e-01  0.00000000000000000e+00
-5.00000000000000028e-02  6.33333333349999861e-01  0.00000000000000000e+00
-5.00000000000000028e-02  6.99999999999999845e-01  0.00000000000000000e+00
-5.00000000000000028e-02  7.66666666649999828e-01  0.00000000000000000e+00
-5.00000000000000028e-02  8.33333333349999927e-01  0.00000000000000000e+00
-5.00000000000000028e-02  8.99999999999999800e-01  0.00000000000000000e+00
-5.00000000000000028e-02  9.66666666650000006e-01  0.00000000000000000e+00
-3.33333333349999997e-02  1.00000000000000000e+00  0.00000000000000000e+00
0.00000000000000000e+00  1.00000000000000000e+00  0.00000000000000000e+00
3.33333333349999927e-02  9.99999999999999778e-01  0.00000000000000000e+00
5.00000000000000028e-02  3.33333333349999997e-02  0.00000000000000000e+00
5.00000000000000028e-02  9.99999999850000043e-02  0.00000000000000000e+00
5.00000000000000097e-02  1.66666666650000017e-01  0.00000000000000000e+00
5.00000000000000028e-02  2.33333333350000005e-01  0.00000000000000000e+00
5.00000000000000028e-02  2.99999999999999989e-01  0.00000000000000000e+00
5.00000000000000028e-02  3.66666666650000028e-01  0.00000000000000000e+00
5.00000000000000028e-02  4.33333333350000016e-01  0.00000000000000000e+00
5.00000000000000028e-02  5.00000000000000000e-01  0.00000000000000000e+00
5.00000000000000028e-02  5.66666666649999873e-01  0.00000000000000000e+00
5.00000000000000028e-02  6.33333333349999861e-01  0.00000000000000000e+00
5.00000000000000028e-02  6.99999999999999845e-01  0.00000000000000000e+00
5.00000000000000028e-02  7.66666666649999828e-01  0.00000000000000000e+00
5.00000000000000028e-02  8.33333333349999927e-01  0.00000000000000000e+00
5.00000000000000028e-02  8.99999999999999800e-01  0.00000000000000000e+00
5.00000000000000028e-02  9.66666666649999784e-01  0.00000000000000000e+00

CELLS 0 0


CELL_TYPES 0


POINT_DATA 33

VECTORS VertexNormals double

0.00000000000000000e+00 0.00000000000000000e+00 0
0.00000000000000000e+00 0.00000000000000000e+00 0
0.00000000000000000e+00 0.00000000000000000e+00 0
0.00000000000000000e+00 0.00000000000000000e+00 0
0.00000000000000000e+00 0.00000000000000000e+00 0
0.00000000000000000e+00 0.00000000000000000e+00 0
0.00000000000000000e+00 0.00000000000000000e+00 0
0.00000000000000000e+00 0.00000000000000000e+00 0
0.00000000000000000e+00 0.00000000000000000e+00 0
0.00000000000000000e+00 0.00000000000000000e+00 0
0.00000000000000000e+00 0.00000000000000000e+00 0
0.00000000000000000e+00 0.00000000000000000e+00 0
0.00000000000000000e+00 0.00000000000000000e+00 0
0.00000000000000000e+00 0.00000000000000000e+00 0
0.00000000000000000e+00 0.00000000000000000e+00 0
0.00000000000000000e+00 0.00000000000000000e+00 0
0.00000000000000000e+00 0.00000000000000000e+00 0
0.00000000000000000e+00 0.00000000000000000e+00 0
0.00000000000000000e+00 0.00000000000000000e+00 0
0.00000000000000000e+00 0.00000000000000000e+00 0
0.00000000000000000e+00 0.00000000000000000e+00 0
0.00000000000000000e+00 0.00000000000000000e+00 0
0.00000000000000000e+00 0.00000000000000000e+00 0
0.00000000000000000e+00 0.00000000000000000e+00 0
0.00000000000000000e+00 0.00000000000000000e+00 0
0.00000000000000000e+00 0.00000000000000000e+00 0
0.00000000000000000e+00 0.00000000000000000e+00 0
0.00000000000000000e+00 0.00000000000000000e+00 0
0.00000000000000000e+00 0.00000000000000000e+00 0
0.00000000000000000e+00 0.00000000000000000e+00 0
0.00000000000000000e+00 0.00000000000000000e+00 0
0.00000000000000000e+00 0.00000000000000000e+00 0
0.00000000000000000e+00 0.00000000000000000e+00 0

VECTORS Force double
9.33673301122577293e+00 -7.03739958182366451e-03 0
9.35675306610238522e+00 -3.88114196278040169e-02 0
9.41916926333614413e+00 -5.48689675776016378e-02 0
9.51535148956676657e+00 -4.73381481423682110e-02 0
9.63386913427505576e+00 -9.15703379273476170e-03 0
9.76611032263598311e+00 6.45248247595019836e-02 0
9.90476773096684937e+00 1.79018347323509019e-01 0
1.00428026754189190e+01 3.42138100003516465e-01 0
1.01740987894528345e+01 5.66161887705646572e-01 0
1.02932285447657037e+01 8.70883124607352732e-01 0
1.03920043148581094e+01 1.28812081603848783e+00 0
1.04748798061464790e+01 1.86525815021611319e+00 0
1.07265559398839940e+01 2.66844357809148303e+00 0
1.18307644507569485e+01 3.80155019917647063e+00 0
1.47858269526528900e+01 4.63412388023611488e+00 0
3.65147941737392889e+00 8.01506693369131717e+00 0
3.29084187516615634e+00 6.37847786522955218e+00 0
3.14124953007597751e+00 4.76723488536034345e+00 0
3.51074846223532555e+00 -4.17848641094033940e-03 0
3.47084143105315235e+00 7.05772431929090061e-04 0
3.42575897816851649e+00 3.38586646041270506e-02 0
3.39584047352426843e+00 9.05165559149034432e-02 0
3.39070929221644812e+00 1.65460168026057064e-01 0
3.41631609278060688e+00 2.54873607769916077e-01 0
3.47755800931704506e+00 3.56280622785246914e-01 0
3.57983141863856646e+00 4.68404008323248633e-01 0
3.73122269420386576e+00 5.91164521400267762e-01 0
3.94499662596342970e+00 7.25580254709403905e-01 0
4.24119013250442656e+00 8.74054172511050331e-01 0
4.65786013727890769e+00 1.04376678063042538e+00 0
5.35733719450735713e+00 1.24965275529744879e+00 0
6.90532953625678836e+00 1.47113398360809788e+00 0
1.01346636971076940e+01 2.19426825004198323e+00 0

VECTORS Displacement double
1.23496759464554923e-05 1.87122128381959708e-05 0
6.31286864028710612e-05 5.19686809093902944e-05 0
1.54447882084167312e-04 8.00742653701032173e-05 0
2.79566235656941687e-04 1.03208413117996712e-04 0
4.31833478236489700e-04 1.21586551147403267e-04 0
6.04834754689404452e-04 1.36134449252501433e-04 0
7.94740372023308044e-04 1.48393641041971188e-04 0
9.99612111632955901e-04 1.59054348266947940e-04 0
1.21748427761229645e-03 1.67909530575420697e-04 0
1.44562272356134553e-03 1.74921950855205067e-04 0
1.68172234137649030e-03 1.80303393326872223e-04 0
1.92380842250905633e-03 1.84035371762330537e-04 0
2.16940170469147667e-03 1.86025488985487256e-04 0
2.41632703440030966e-03 1.86812672191352208e-04 0
2.66342868270369112e-03 1.87046798708037979e-04 0
2.78689545429955995e-03 1.25332633925961690e-04 0
2.78686896485113265e-03 1.85231457198861668e-06 0
2.78683398450449513e-03 -1.21640022264762903e-04 0
1.22328539270890338e-05 -1.85463139477471039e-05 0
6.29927350550035141e-05 -5.15358811263288760e-05 0
1.54321055698509568e-04 -7.93643028514395588e-05 0
2.79435088375892078e-04 -1.02198879651429293e-04 0
4.31686237526012341e-04 -1.20274338579209192e-04 0
6.04700054215179771e-04 -1.34533805275754195e-04 0
7.94599766708559271e-04 -1.46520939468883709e-04 0
9.99516071495304241e-04 -1.56934742258400806e-04 0
1.21734953415846480e-03 -1.65529953970046709e-04 0
1.44547719231774129e-03 -1.72264848230540050e-04 0
1.68160775824540082e-03 -1.77410861982322214e-04 0
1.92368735460366012e-03 -1.80898840528477360e-04 0
2.16932354107912976e-03 -1.82683747805924144e-04 0
2.41623088420425073e-03 -1.83298739819468849e-04 0
2.66335588539405414e-03 -1.83393890474026748e-04 0

