# vtk DataFile Version 2.0

ASCII

DATASET UNSTRUCTURED_GRID

POINTS 33 double 

-5.00000000000000028e-02  3.33333333349999997e-02  0.00000000000000000e+00
-5.00000000000000028e-02  9.99999999850000182e-02  0.00000000000000000e+00
-5.00000000000000097e-02  1.66666666650000017e-01  0.00000000000000000e+00
-5.00000000000000028e-02  2.33333333350000005e-01  0.00000000000000000e+00
-5.00000000000000028e-02  2.99999999999999989e-01  0.00000000000000000e+00
-5.00000000000000097e-02  3.66666666650000028e-01  0.00000000000000000e+00
-5.00000000000000028e-02  4.33333333350000016e-01  0.00000000000000000e+00
-5.00000000000000028e-02  5.00000000000000000e-01  0.00000000000000000e+00
-5.00000000000000028e-02  5.66666666649999873e-01  0.00000000000000000e+00
-5.00000000000000028e-02  6.33333333349999861e-01  0.00000000000000000e+00
-5.00000000000000028e-02  6.99999999999999845e-01  0.00000000000000000e+00
-5.00000000000000028e-02  7.66666666649999828e-01  0.00000000000000000e+00
-5.00000000000000028e-02  8.33333333349999927e-01  0.00000000000000000e+00
-5.00000000000000028e-02  8.99999999999999800e-01  0.00000000000000000e+00
-5.00000000000000028e-02  9.66666666650000006e-01  0.00000000000000000e+00
-3.33333333349999997e-02  1.00000000000000000e+00  0.00000000000000000e+00
0.00000000000000000e+00  1.00000000000000000e+00  0.00000000000000000e+00
3.33333333349999927e-02  9.99999999999999778e-01  0.00000000000000000e+00
5.00000000000000028e-02  3.33333333349999997e-02  0.00000000000000000e+00
5.00000000000000028e-02  9.99999999850000043e-02  0.00000000000000000e+00
5.00000000000000097e-02  1.66666666650000017e-01  0.00000000000000000e+00
5.00000000000000028e-02  2.33333333350000005e-01  0.00000000000000000e+00
5.00000000000000028e-02  2.99999999999999989e-01  0.00000000000000000e+00
5.00000000000000028e-02  3.66666666650000028e-01  0.00000000000000000e+00
5.00000000000000028e-02  4.33333333350000016e-01  0.00000000000000000e+00
5.00000000000000028e-02  5.00000000000000000e-01  0.00000000000000000e+00
5.00000000000000028e-02  5.66666666649999873e-01  0.00000000000000000e+00
5.00000000000000028e-02  6.33333333349999861e-01  0.00000000000000000e+00
5.00000000000000028e-02  6.99999999999999845e-01  0.00000000000000000e+00
5.00000000000000028e-02  7.66666666649999828e-01  0.00000000000000000e+00
5.00000000000000028e-02  8.33333333349999927e-01  0.00000000000000000e+00
5.00000000000000028e-02  8.99999999999999800e-01  0.00000000000000000e+00
5.00000000000000028e-02  9.66666666649999784e-01  0.00000000000000000e+00

CELLS 0 0


CELL_TYPES 0


POINT_DATA 33

VECTORS VertexNormals double

0.00000000000000000e+00 0.00000000000000000e+00 0
0.00000000000000000e+00 0.00000000000000000e+00 0
0.00000000000000000e+00 0.00000000000000000e+00 0
0.00000000000000000e+00 0.00000000000000000e+00 0
0.00000000000000000e+00 0.00000000000000000e+00 0
0.00000000000000000e+00 0.00000000000000000e+00 0
0.00000000000000000e+00 0.00000000000000000e+00 0
0.00000000000000000e+00 0.00000000000000000e+00 0
0.00000000000000000e+00 0.00000000000000000e+00 0
0.00000000000000000e+00 0.00000000000000000e+00 0
0.00000000000000000e+00 0.00000000000000000e+00 0
0.00000000000000000e+00 0.00000000000000000e+00 0
0.00000000000000000e+00 0.00000000000000000e+00 0
0.00000000000000000e+00 0.00000000000000000e+00 0
0.00000000000000000e+00 0.00000000000000000e+00 0
0.00000000000000000e+00 0.00000000000000000e+00 0
0.00000000000000000e+00 0.00000000000000000e+00 0
0.00000000000000000e+00 0.00000000000000000e+00 0
0.00000000000000000e+00 0.00000000000000000e+00 0
0.00000000000000000e+00 0.00000000000000000e+00 0
0.00000000000000000e+00 0.00000000000000000e+00 0
0.00000000000000000e+00 0.00000000000000000e+00 0
0.00000000000000000e+00 0.00000000000000000e+00 0
0.00000000000000000e+00 0.00000000000000000e+00 0
0.00000000000000000e+00 0.00000000000000000e+00 0
0.00000000000000000e+00 0.00000000000000000e+00 0
0.00000000000000000e+00 0.00000000000000000e+00 0
0.00000000000000000e+00 0.00000000000000000e+00 0
0.00000000000000000e+00 0.00000000000000000e+00 0
0.00000000000000000e+00 0.00000000000000000e+00 0
0.00000000000000000e+00 0.00000000000000000e+00 0
0.00000000000000000e+00 0.00000000000000000e+00 0
0.00000000000000000e+00 0.00000000000000000e+00 0

VECTORS Force double
9.19825632581402530e+00 -6.94297187114776768e-03 0
9.21905783995930328e+00 -3.80213125307550665e-02 0
9.28189772417677084e+00 -5.38311850449129312e-02 0
9.37851887592423417e+00 -4.63602939119495683e-02 0
9.49743861264435196e+00 -8.53435245455394335e-03 0
9.62975792794498986e+00 6.46873741820107317e-02 0
9.76822297335002609e+00 1.79012847483059151e-01 0
9.90620704222942727e+00 3.42393249877935346e-01 0
1.00377694135561182e+01 5.66934685945659989e-01 0
1.01572957240300941e+01 8.72323653941297850e-01 0
1.02563617463955588e+01 1.29041689011764582e+00 0
1.03391393669697962e+01 1.86867750598243210e+00 0
1.05907362890838925e+01 2.67348507267336855e+00 0
1.16974693099590663e+01 3.80903297980916333e+00 0
1.46591058202099127e+01 4.64145958419428428e+00 0
3.67071100435059750e+00 8.13452108807140561e+00 0
3.30788483937170108e+00 6.49267558704032410e+00 0
3.15737719246385762e+00 4.87484453202177015e+00 0
3.70497565777049687e+00 -3.53044546948925921e-03 0
3.66471963112072885e+00 1.65998939851092191e-03 0
3.61871443959286943e+00 3.52098273835479078e-02 0
3.58816071690370553e+00 9.24951338642055892e-02 0
3.58286144188787681e+00 1.68314142516906434e-01 0
3.60867281357792091e+00 2.58751548735906389e-01 0
3.67060590237904050e+00 3.61168064181602799e-01 0
3.77435292815988976e+00 4.74196317273416434e-01 0
3.92807666325312921e+00 5.97753121484157712e-01 0
4.14487774341666437e+00 7.32838522771214307e-01 0
4.44461448875379883e+00 8.81805415545210192e-01 0
4.86528107783247066e+00 1.05179242146518437e+00 0
5.56984206828047501e+00 1.25764448583564903e+00 0
7.12681320474230251e+00 1.47859784079935452e+00 0
1.03770474956238328e+01 2.20323210046657847e+00 0

VECTORS Displacement double
9.77380785935664338e-06 1.57239322304843272e-05 0
5.26152336646750624e-05 4.54142546392534113e-05 0
1.33676663766647981e-04 7.25943414445366560e-05 0
2.49470692882712639e-04 9.67786931417459457e-05 0
3.95434839584122449e-04 1.17618867559434107e-04 0
5.67000953937119305e-04 1.35293496764739269e-04 0
7.60283342061123944e-04 1.50233434575292008e-04 0
9.71676717228963055e-04 1.62588137225595683e-04 0
1.19778203840817670e-03 1.72541638766605189e-04 0
1.43547746972811112e-03 1.80394209386357517e-04 0
1.68228282293154800e-03 1.86563459487056065e-04 0
1.93639999353250182e-03 1.91293572400974695e-04 0
2.19576101157676349e-03 1.94099451841475652e-04 0
2.45705416812612735e-03 1.95023912911580755e-04 0
2.71836809591934807e-03 1.95222733964544383e-04 0
2.84887667053968950e-03 1.29953068076243109e-04 0
2.84884637938259341e-03 -6.25230988213112039e-07 0
2.84882633883965343e-03 -1.31170358617054434e-04 0
9.83360821237141622e-06 -1.58662268120318773e-05 0
5.26734014602001956e-05 -4.58362508189534901e-05 0
1.33718977083347292e-04 -7.32868806756560879e-05 0
2.49501756119948021e-04 -9.77310469660654259e-05 0
3.95450477334919844e-04 -1.18792094929156506e-04 0
5.67002590385754001e-04 -1.36677333219405227e-04 0
7.60268509987754859e-04 -1.51756407727112098e-04 0
9.71648803389137420e-04 -1.64180576355502133e-04 0
1.19773284253655481e-03 -1.74145759181620056e-04 0
1.43541619177780925e-03 -1.81989043568898267e-04 0
1.68221698277289111e-03 -1.88158809016933913e-04 0
1.93634506191615700e-03 -1.92847305574253515e-04 0
2.19569632526770732e-03 -1.95583699607405171e-04 0
2.45698148244600460e-03 -1.96413141334178889e-04 0
2.71829688475554252e-03 -1.96463377044356639e-04 0

