# vtk DataFile Version 2.0

ASCII

DATASET UNSTRUCTURED_GRID

POINTS 33 double 

-5.00000000000000028e-02  3.33333333349999997e-02  0.00000000000000000e+00
-5.00000000000000028e-02  9.99999999850000182e-02  0.00000000000000000e+00
-5.00000000000000097e-02  1.66666666650000017e-01  0.00000000000000000e+00
-5.00000000000000028e-02  2.33333333350000005e-01  0.00000000000000000e+00
-5.00000000000000028e-02  2.99999999999999989e-01  0.00000000000000000e+00
-5.00000000000000097e-02  3.66666666650000028e-01  0.00000000000000000e+00
-5.00000000000000028e-02  4.33333333350000016e-01  0.00000000000000000e+00
-5.00000000000000028e-02  5.00000000000000000e-01  0.00000000000000000e+00
-5.00000000000000028e-02  5.66666666649999873e-01  0.00000000000000000e+00
-5.00000000000000028e-02  6.33333333349999861e-01  0.00000000000000000e+00
-5.00000000000000028e-02  6.99999999999999845e-01  0.00000000000000000e+00
-5.00000000000000028e-02  7.66666666649999828e-01  0.00000000000000000e+00
-5.00000000000000028e-02  8.33333333349999927e-01  0.00000000000000000e+00
-5.00000000000000028e-02  8.99999999999999800e-01  0.00000000000000000e+00
-5.00000000000000028e-02  9.66666666650000006e-01  0.00000000000000000e+00
-3.33333333349999997e-02  1.00000000000000000e+00  0.00000000000000000e+00
0.00000000000000000e+00  1.00000000000000000e+00  0.00000000000000000e+00
3.33333333349999927e-02  9.99999999999999778e-01  0.00000000000000000e+00
5.00000000000000028e-02  3.33333333349999997e-02  0.00000000000000000e+00
5.00000000000000028e-02  9.99999999850000043e-02  0.00000000000000000e+00
5.00000000000000097e-02  1.66666666650000017e-01  0.00000000000000000e+00
5.00000000000000028e-02  2.33333333350000005e-01  0.00000000000000000e+00
5.00000000000000028e-02  2.99999999999999989e-01  0.00000000000000000e+00
5.00000000000000028e-02  3.66666666650000028e-01  0.00000000000000000e+00
5.00000000000000028e-02  4.33333333350000016e-01  0.00000000000000000e+00
5.00000000000000028e-02  5.00000000000000000e-01  0.00000000000000000e+00
5.00000000000000028e-02  5.66666666649999873e-01  0.00000000000000000e+00
5.00000000000000028e-02  6.33333333349999861e-01  0.00000000000000000e+00
5.00000000000000028e-02  6.99999999999999845e-01  0.00000000000000000e+00
5.00000000000000028e-02  7.66666666649999828e-01  0.00000000000000000e+00
5.00000000000000028e-02  8.33333333349999927e-01  0.00000000000000000e+00
5.00000000000000028e-02  8.99999999999999800e-01  0.00000000000000000e+00
5.00000000000000028e-02  9.66666666649999784e-01  0.00000000000000000e+00

CELLS 0 0


CELL_TYPES 0


POINT_DATA 33

VECTORS VertexNormals double

0.00000000000000000e+00 0.00000000000000000e+00 0
0.00000000000000000e+00 0.00000000000000000e+00 0
0.00000000000000000e+00 0.00000000000000000e+00 0
0.00000000000000000e+00 0.00000000000000000e+00 0
0.00000000000000000e+00 0.00000000000000000e+00 0
0.00000000000000000e+00 0.00000000000000000e+00 0
0.00000000000000000e+00 0.00000000000000000e+00 0
0.00000000000000000e+00 0.00000000000000000e+00 0
0.00000000000000000e+00 0.00000000000000000e+00 0
0.00000000000000000e+00 0.00000000000000000e+00 0
0.00000000000000000e+00 0.00000000000000000e+00 0
0.00000000000000000e+00 0.00000000000000000e+00 0
0.00000000000000000e+00 0.00000000000000000e+00 0
0.00000000000000000e+00 0.00000000000000000e+00 0
0.00000000000000000e+00 0.00000000000000000e+00 0
0.00000000000000000e+00 0.00000000000000000e+00 0
0.00000000000000000e+00 0.00000000000000000e+00 0
0.00000000000000000e+00 0.00000000000000000e+00 0
0.00000000000000000e+00 0.00000000000000000e+00 0
0.00000000000000000e+00 0.00000000000000000e+00 0
0.00000000000000000e+00 0.00000000000000000e+00 0
0.00000000000000000e+00 0.00000000000000000e+00 0
0.00000000000000000e+00 0.00000000000000000e+00 0
0.00000000000000000e+00 0.00000000000000000e+00 0
0.00000000000000000e+00 0.00000000000000000e+00 0
0.00000000000000000e+00 0.00000000000000000e+00 0
0.00000000000000000e+00 0.00000000000000000e+00 0
0.00000000000000000e+00 0.00000000000000000e+00 0
0.00000000000000000e+00 0.00000000000000000e+00 0
0.00000000000000000e+00 0.00000000000000000e+00 0
0.00000000000000000e+00 0.00000000000000000e+00 0
0.00000000000000000e+00 0.00000000000000000e+00 0
0.00000000000000000e+00 0.00000000000000000e+00 0

VECTORS Force double
8.54507968641393489e+00 -5.02652987532959273e-03 0
8.56649655791111897e+00 -3.27716593709264439e-02 0
8.63090235712865628e+00 -4.53104648556140396e-02 0
8.72993117652716677e+00 -3.44621233473875466e-02 0
8.85174710846365187e+00 6.94795809007664467e-03 0
8.98710807678344636e+00 8.41638042842011158e-02 0
9.12855114785419097e+00 2.03089868085410880e-01 0
9.26912995790873140e+00 3.71761853521130170e-01 0
9.40241575188332490e+00 6.02519612630594281e-01 0
9.52230699888764676e+00 9.15504087850010140e-01 0
9.61985500956448547e+00 1.34331083933509898e+00 0
9.69894744951901266e+00 1.93449422413817973e+00 0
9.94740888733898920e+00 2.75643609788026289e+00 0
1.10652996980878360e+01 3.91766510843670579e+00 0
1.40678508134797404e+01 4.76762206213766948e+00 0
3.74545053417258389e+00 8.79147261698390814e+00 0
3.38250619397501895e+00 7.12624787233293056e+00 0
3.24271747292552126e+00 5.47385818894597254e+00 0
4.57571298752120281e+00 -3.60842031402650119e-03 0
4.52406540607422336e+00 4.74351583184544172e-03 0
4.46531264424795715e+00 4.89426015406063467e-02 0
4.42725185502233298e+00 1.22503166712631908e-01 0
4.42222484258839366e+00 2.17595468432883549e-01 0
4.45682003159711826e+00 3.27917137500332301e-01 0
4.53583159962241655e+00 4.48828785833915667e-01 0
4.66391021078614987e+00 5.77393651812487363e-01 0
4.84763521877115444e+00 7.12410819600777678e-01 0
5.09843149141160890e+00 8.54215022082821407e-01 0
5.43476626988595424e+00 1.00500048623817118e+00 0
5.89406629630094159e+00 1.17236984900975605e+00 0
6.64269233702347428e+00 1.37222124568459636e+00 0
8.26409368701010294e+00 1.58448889071912102e+00 0
1.16177248603287442e+01 2.30863091643350726e+00 0

VECTORS Displacement double
3.39917762199615778e-06 5.33423636968908820e-06 0
1.78646219054131168e-05 1.53014316616430836e-05 0
4.50724871185111413e-05 2.43767061452737531e-05 0
8.39035593665006551e-05 3.24718950881540828e-05 0
1.32815886659548620e-04 3.97310479476185077e-05 0
1.90959955163061775e-04 4.62607211067886284e-05 0
2.57205914543117765e-04 5.21300083775868634e-05 0
3.30834012253684894e-04 5.76249011743843113e-05 0
4.11609665329072173e-04 6.27639019077466697e-05 0
4.98926138346002961e-04 6.76247106374444672e-05 0
5.92646664659329911e-04 7.20730161945880960e-05 0
6.91874747847245810e-04 7.57355364463349503e-05 0
7.95259579870862682e-04 7.87087657531544818e-05 0
9.02463694690073528e-04 8.10888621024674101e-05 0
1.01216828240222891e-03 8.22114613527084263e-05 0
1.06709552101071710e-03 5.48411231261022896e-05 0
1.06701986336162568e-03 5.14837556550655270e-08 0
1.06704512115250402e-03 -5.47445271776911591e-05 0
3.40563514303903229e-06 -5.36505728738929577e-06 0
1.78645815582181443e-05 -1.54342572209876142e-05 0
4.50985034704100914e-05 -2.46040953426104752e-05 0
8.38946097789218211e-05 -3.27864385552545853e-05 0
1.32799629983151109e-04 -4.01096505613044850e-05 0
1.90927677678684568e-04 -4.66670574246473590e-05 0
2.57155538882280392e-04 -5.25199189537794081e-05 0
3.30808858061429399e-04 -5.79687701564105944e-05 0
4.11557469498772871e-04 -6.30501356281243467e-05 0
4.98882439996224214e-04 -6.78670966274027811e-05 0
5.92601467459933392e-04 -7.22722790665792411e-05 0
6.91815456209022195e-04 -7.58681861346795141e-05 0
7.95225713523057360e-04 -7.87655445192929999e-05 0
9.02429905112912627e-04 -8.10767227138699991e-05 0
1.01212627532159096e-03 -8.21355158174161769e-05 0

