# vtk DataFile Version 2.0

ASCII

DATASET UNSTRUCTURED_GRID

POINTS 33 double 

-5.00000000000000028e-02  3.33333333349999997e-02  0.00000000000000000e+00
-5.00000000000000028e-02  9.99999999850000182e-02  0.00000000000000000e+00
-5.00000000000000097e-02  1.66666666650000017e-01  0.00000000000000000e+00
-5.00000000000000028e-02  2.33333333350000005e-01  0.00000000000000000e+00
-5.00000000000000028e-02  2.99999999999999989e-01  0.00000000000000000e+00
-5.00000000000000097e-02  3.66666666650000028e-01  0.00000000000000000e+00
-5.00000000000000028e-02  4.33333333350000016e-01  0.00000000000000000e+00
-5.00000000000000028e-02  5.00000000000000000e-01  0.00000000000000000e+00
-5.00000000000000028e-02  5.66666666649999873e-01  0.00000000000000000e+00
-5.00000000000000028e-02  6.33333333349999861e-01  0.00000000000000000e+00
-5.00000000000000028e-02  6.99999999999999845e-01  0.00000000000000000e+00
-5.00000000000000028e-02  7.66666666649999828e-01  0.00000000000000000e+00
-5.00000000000000028e-02  8.33333333349999927e-01  0.00000000000000000e+00
-5.00000000000000028e-02  8.99999999999999800e-01  0.00000000000000000e+00
-5.00000000000000028e-02  9.66666666650000006e-01  0.00000000000000000e+00
-3.33333333349999997e-02  1.00000000000000000e+00  0.00000000000000000e+00
0.00000000000000000e+00  1.00000000000000000e+00  0.00000000000000000e+00
3.33333333349999927e-02  9.99999999999999778e-01  0.00000000000000000e+00
5.00000000000000028e-02  3.33333333349999997e-02  0.00000000000000000e+00
5.00000000000000028e-02  9.99999999850000043e-02  0.00000000000000000e+00
5.00000000000000097e-02  1.66666666650000017e-01  0.00000000000000000e+00
5.00000000000000028e-02  2.33333333350000005e-01  0.00000000000000000e+00
5.00000000000000028e-02  2.99999999999999989e-01  0.00000000000000000e+00
5.00000000000000028e-02  3.66666666650000028e-01  0.00000000000000000e+00
5.00000000000000028e-02  4.33333333350000016e-01  0.00000000000000000e+00
5.00000000000000028e-02  5.00000000000000000e-01  0.00000000000000000e+00
5.00000000000000028e-02  5.66666666649999873e-01  0.00000000000000000e+00
5.00000000000000028e-02  6.33333333349999861e-01  0.00000000000000000e+00
5.00000000000000028e-02  6.99999999999999845e-01  0.00000000000000000e+00
5.00000000000000028e-02  7.66666666649999828e-01  0.00000000000000000e+00
5.00000000000000028e-02  8.33333333349999927e-01  0.00000000000000000e+00
5.00000000000000028e-02  8.99999999999999800e-01  0.00000000000000000e+00
5.00000000000000028e-02  9.66666666649999784e-01  0.00000000000000000e+00

CELLS 0 0


CELL_TYPES 0


POINT_DATA 33

VECTORS VertexNormals double

0.00000000000000000e+00 0.00000000000000000e+00 0
0.00000000000000000e+00 0.00000000000000000e+00 0
0.00000000000000000e+00 0.00000000000000000e+00 0
0.00000000000000000e+00 0.00000000000000000e+00 0
0.00000000000000000e+00 0.00000000000000000e+00 0
0.00000000000000000e+00 0.00000000000000000e+00 0
0.00000000000000000e+00 0.00000000000000000e+00 0
0.00000000000000000e+00 0.00000000000000000e+00 0
0.00000000000000000e+00 0.00000000000000000e+00 0
0.00000000000000000e+00 0.00000000000000000e+00 0
0.00000000000000000e+00 0.00000000000000000e+00 0
0.00000000000000000e+00 0.00000000000000000e+00 0
0.00000000000000000e+00 0.00000000000000000e+00 0
0.00000000000000000e+00 0.00000000000000000e+00 0
0.00000000000000000e+00 0.00000000000000000e+00 0
0.00000000000000000e+00 0.00000000000000000e+00 0
0.00000000000000000e+00 0.00000000000000000e+00 0
0.00000000000000000e+00 0.00000000000000000e+00 0
0.00000000000000000e+00 0.00000000000000000e+00 0
0.00000000000000000e+00 0.00000000000000000e+00 0
0.00000000000000000e+00 0.00000000000000000e+00 0
0.00000000000000000e+00 0.00000000000000000e+00 0
0.00000000000000000e+00 0.00000000000000000e+00 0
0.00000000000000000e+00 0.00000000000000000e+00 0
0.00000000000000000e+00 0.00000000000000000e+00 0
0.00000000000000000e+00 0.00000000000000000e+00 0
0.00000000000000000e+00 0.00000000000000000e+00 0
0.00000000000000000e+00 0.00000000000000000e+00 0
0.00000000000000000e+00 0.00000000000000000e+00 0
0.00000000000000000e+00 0.00000000000000000e+00 0
0.00000000000000000e+00 0.00000000000000000e+00 0
0.00000000000000000e+00 0.00000000000000000e+00 0
0.00000000000000000e+00 0.00000000000000000e+00 0

VECTORS Force double
9.34265078777084490e+00 -6.10294706751158059e-03 0
9.36277230015972606e+00 -3.63516060204243305e-02 0
9.42536099185962861e+00 -5.14505415923829992e-02 0
9.52182487293408997e+00 -4.34496612592821796e-02 0
9.64060186365266425e+00 -5.30478509928344194e-03 0
9.77287226297396217e+00 6.80822142011595771e-02 0
9.91152660042414624e+00 1.82394460137488501e-01 0
1.00498611429479503e+01 3.45435736137971294e-01 0
1.01816549112842889e+01 5.69306434138478368e-01 0
1.03011770100268105e+01 8.73782978605992966e-01 0
1.04001617605247780e+01 1.29077028427291185e+00 0
1.04831578889519328e+01 1.86763971044247734e+00 0
1.07346335194939666e+01 2.67042056392600546e+00 0
1.18377676206558391e+01 3.80327790159686741e+00 0
1.47917363499057331e+01 4.63629329267843193e+00 0
3.64727617801705417e+00 8.00581277823551751e+00 0
3.28775412794644284e+00 6.37169749859040380e+00 0
3.13960110240799883e+00 4.76243090376694234e+00 0
3.49798758903855100e+00 -3.85086097881616289e-03 0
3.45789734587642217e+00 1.54100801712551755e-03 0
3.41272560935357472e+00 3.50113870628486340e-02 0
3.38287256486208632e+00 9.18871139059057040e-02 0
3.37779143436485940e+00 1.66917152608035829e-01 0
3.40336154769974364e+00 2.56251412119602451e-01 0
3.46468370147299165e+00 3.57469375607830042e-01 0
3.56732089676466391e+00 4.69440141736089112e-01 0
3.71918574135339597e+00 5.92207266708738023e-01 0
3.93326967903681668e+00 7.26772428426018746e-01 0
4.22952139718012443e+00 8.75441306975913602e-01 0
4.64606507261997148e+00 1.04537621445393558e+00 0
5.34518209462883398e+00 1.25157570581969302e+00 0
6.89228701598779558e+00 1.47350712203685386e+00 0
1.01187364732520582e+01 2.19650633532211614e+00 0

VECTORS Displacement double
8.97892759233987435e-06 1.39939983092722473e-05 0
4.72363978373050439e-05 3.97931301552280768e-05 0
1.18055079921198505e-04 6.26593150711905435e-05 0
2.17530859903095465e-04 8.26384018551451385e-05 0
3.41762790616419675e-04 1.00019703124338110e-04 0
4.87701111454933985e-04 1.15114229458963897e-04 0
6.52212482985087250e-04 1.28004447705046758e-04 0
8.32475199848211711e-04 1.38814671714024290e-04 0
1.02596669289986998e-03 1.47601703160875038e-04 0
1.22967647094099570e-03 1.54382740765165733e-04 0
1.44114156217823208e-03 1.59522012974050133e-04 0
1.65829447950414780e-03 1.63215677587555402e-04 0
1.87924470446717445e-03 1.65839216581400067e-04 0
2.10318487561178590e-03 1.67720818418010039e-04 0
2.32891379817293676e-03 1.68542923192086593e-04 0
2.44176112041817909e-03 1.12165796892339681e-04 0
2.44171341270036681e-03 -6.49118492911683598e-07 0
2.44171410815735438e-03 -1.13420452281423571e-04 0
9.02691901113264743e-06 -1.41664157502902835e-05 0
4.73110442406722640e-05 -4.02489338410669118e-05 0
1.18147595338520539e-04 -6.34026967776572196e-05 0
2.17570708144675540e-04 -8.36145169638012240e-05 0
3.41806791180448847e-04 -1.01193562673989248e-04 0
4.87716801678650077e-04 -1.16429905743838227e-04 0
6.52240628937315642e-04 -1.29417950116217714e-04 0
8.32492209348438972e-04 -1.40332194340777125e-04 0
1.02596957141766476e-03 -1.49207232508853828e-04 0
1.22967599411134484e-03 -1.56000642591744515e-04 0
1.44110052583637364e-03 -1.61100306963161310e-04 0
1.65826704503533912e-03 -1.64746658928152721e-04 0
1.87921943435711940e-03 -1.67312430810369664e-04 0
2.10314209390070070e-03 -1.69080892297222520e-04 0
2.32887480781806882e-03 -1.69807949837057378e-04 0

