# vtk DataFile Version 2.0

ASCII

DATASET UNSTRUCTURED_GRID

POINTS 33 double 

-5.00000000000000028e-02  3.33333333349999997e-02  0.00000000000000000e+00
-5.00000000000000028e-02  9.99999999850000182e-02  0.00000000000000000e+00
-5.00000000000000097e-02  1.66666666650000017e-01  0.00000000000000000e+00
-5.00000000000000028e-02  2.33333333350000005e-01  0.00000000000000000e+00
-5.00000000000000028e-02  2.99999999999999989e-01  0.00000000000000000e+00
-5.00000000000000097e-02  3.66666666650000028e-01  0.00000000000000000e+00
-5.00000000000000028e-02  4.33333333350000016e-01  0.00000000000000000e+00
-5.00000000000000028e-02  5.00000000000000000e-01  0.00000000000000000e+00
-5.00000000000000028e-02  5.66666666649999873e-01  0.00000000000000000e+00
-5.00000000000000028e-02  6.33333333349999861e-01  0.00000000000000000e+00
-5.00000000000000028e-02  6.99999999999999845e-01  0.00000000000000000e+00
-5.00000000000000028e-02  7.66666666649999828e-01  0.00000000000000000e+00
-5.00000000000000028e-02  8.33333333349999927e-01  0.00000000000000000e+00
-5.00000000000000028e-02  8.99999999999999800e-01  0.00000000000000000e+00
-5.00000000000000028e-02  9.66666666650000006e-01  0.00000000000000000e+00
-3.33333333349999997e-02  1.00000000000000000e+00  0.00000000000000000e+00
0.00000000000000000e+00  1.00000000000000000e+00  0.00000000000000000e+00
3.33333333349999927e-02  9.99999999999999778e-01  0.00000000000000000e+00
5.00000000000000028e-02  3.33333333349999997e-02  0.00000000000000000e+00
5.00000000000000028e-02  9.99999999850000043e-02  0.00000000000000000e+00
5.00000000000000097e-02  1.66666666650000017e-01  0.00000000000000000e+00
5.00000000000000028e-02  2.33333333350000005e-01  0.00000000000000000e+00
5.00000000000000028e-02  2.99999999999999989e-01  0.00000000000000000e+00
5.00000000000000028e-02  3.66666666650000028e-01  0.00000000000000000e+00
5.00000000000000028e-02  4.33333333350000016e-01  0.00000000000000000e+00
5.00000000000000028e-02  5.00000000000000000e-01  0.00000000000000000e+00
5.00000000000000028e-02  5.66666666649999873e-01  0.00000000000000000e+00
5.00000000000000028e-02  6.33333333349999861e-01  0.00000000000000000e+00
5.00000000000000028e-02  6.99999999999999845e-01  0.00000000000000000e+00
5.00000000000000028e-02  7.66666666649999828e-01  0.00000000000000000e+00
5.00000000000000028e-02  8.33333333349999927e-01  0.00000000000000000e+00
5.00000000000000028e-02  8.99999999999999800e-01  0.00000000000000000e+00
5.00000000000000028e-02  9.66666666649999784e-01  0.00000000000000000e+00

CELLS 0 0


CELL_TYPES 0


POINT_DATA 33

VECTORS VertexNormals double

0.00000000000000000e+00 0.00000000000000000e+00 0
0.00000000000000000e+00 0.00000000000000000e+00 0
0.00000000000000000e+00 0.00000000000000000e+00 0
0.00000000000000000e+00 0.00000000000000000e+00 0
0.00000000000000000e+00 0.00000000000000000e+00 0
0.00000000000000000e+00 0.00000000000000000e+00 0
0.00000000000000000e+00 0.00000000000000000e+00 0
0.00000000000000000e+00 0.00000000000000000e+00 0
0.00000000000000000e+00 0.00000000000000000e+00 0
0.00000000000000000e+00 0.00000000000000000e+00 0
0.00000000000000000e+00 0.00000000000000000e+00 0
0.00000000000000000e+00 0.00000000000000000e+00 0
0.00000000000000000e+00 0.00000000000000000e+00 0
0.00000000000000000e+00 0.00000000000000000e+00 0
0.00000000000000000e+00 0.00000000000000000e+00 0
0.00000000000000000e+00 0.00000000000000000e+00 0
0.00000000000000000e+00 0.00000000000000000e+00 0
0.00000000000000000e+00 0.00000000000000000e+00 0
0.00000000000000000e+00 0.00000000000000000e+00 0
0.00000000000000000e+00 0.00000000000000000e+00 0
0.00000000000000000e+00 0.00000000000000000e+00 0
0.00000000000000000e+00 0.00000000000000000e+00 0
0.00000000000000000e+00 0.00000000000000000e+00 0
0.00000000000000000e+00 0.00000000000000000e+00 0
0.00000000000000000e+00 0.00000000000000000e+00 0
0.00000000000000000e+00 0.00000000000000000e+00 0
0.00000000000000000e+00 0.00000000000000000e+00 0
0.00000000000000000e+00 0.00000000000000000e+00 0
0.00000000000000000e+00 0.00000000000000000e+00 0
0.00000000000000000e+00 0.00000000000000000e+00 0
0.00000000000000000e+00 0.00000000000000000e+00 0
0.00000000000000000e+00 0.00000000000000000e+00 0
0.00000000000000000e+00 0.00000000000000000e+00 0

VECTORS Force double
9.06726989442291931e+00 -6.25616416709569127e-03 0
9.08788689037386099e+00 -3.63486430898601054e-02 0
9.15062447117174038e+00 -5.12128698499460244e-02 0
9.24727661110786947e+00 -4.27554978468418709e-02 0
9.36648570346492271e+00 -4.03036803070420772e-03 0
9.49931206920898319e+00 6.99139970437701735e-02 0
9.63837011210107164e+00 1.84771633450343281e-01 0
9.77684736154699507e+00 3.48485490749927129e-01 0
9.90857556144287166e+00 5.73225713747331778e-01 0
1.00278185747836126e+01 8.78897900016217926e-01 0
1.01262476582097847e+01 1.29766168253309000e+00 0
1.02083757049166231e+01 1.87725710217031483e+00 0
1.04601309125144777e+01 2.68419841557974959e+00 0
1.15699957021062971e+01 3.82330605002533686e+00 0
1.45406987365615059e+01 4.65770347025951192e+00 0
3.68220291726859994e+00 8.24248635008494013e+00 0
3.31994640200653901e+00 6.59956001846271079e+00 0
3.17179767319800376e+00 4.97811320260583390e+00 0
3.89327799170009348e+00 -3.61527915860152503e-03 0
3.85204808108367835e+00 1.89729459315665606e-03 0
3.80494456026208061e+00 3.63299487255770229e-02 0
3.77354005627578815e+00 9.48887103084707778e-02 0
3.76796449395241373e+00 1.72180323382747857e-01 0
3.79422939250832103e+00 2.64186255228221478e-01 0
3.85726865006176123e+00 3.68203822216766896e-01 0
3.96252942490569859e+00 4.82738789701412152e-01 0
4.11795428503824823e+00 6.07543873508964882e-01 0
4.33658437173361477e+00 7.43519288178427717e-01 0
4.63840498546051627e+00 8.92990375464724484e-01 0
5.06176498648655127e+00 1.06314097684624675e+00 0
5.77066689422474965e+00 1.26897261848365983e+00 0
7.33655332061815457e+00 1.48987285665604752e+00 0
1.06035484113166749e+01 2.21563102991599781e+00 0

VECTORS Displacement double
8.11165521033339442e-06 1.30826863066375916e-05 0
4.38402916137405746e-05 3.77715907843143134e-05 0
1.11095644799229546e-04 5.98610264878899606e-05 0
2.05952604106431514e-04 7.90311082131623174e-05 0
3.24445696197901766e-04 9.56368681520428256e-05 0
4.63499240649380227e-04 1.10120415120150544e-04 0
6.20455968062043296e-04 1.22612035590662332e-04 0
7.92771221243519222e-04 1.33415670286495669e-04 0
9.78642568852039312e-04 1.42873361479007357e-04 0
1.17635092761715133e-03 1.50917554365234794e-04 0
1.38374907019216445e-03 1.57247628811859957e-04 0
1.59846655594096817e-03 1.61705410808793556e-04 0
1.81761623092864533e-03 1.64067151093009062e-04 0
2.03835710482369245e-03 1.64959707851704284e-04 0
2.25934116814693756e-03 1.65273749329155841e-04 0
2.36977250655717210e-03 1.10072254871332629e-04 0
2.36976456259346997e-03 -3.84489127973728039e-07 0
2.36974561646671050e-03 -1.10847631442822608e-04 0
8.11975616322534557e-06 -1.31692723580139669e-05 0
4.38656538866754654e-05 -3.79772557721084073e-05 0
1.11148512730637773e-04 -6.02026994186375124e-05 0
2.05980803069337026e-04 -7.94964866642430427e-05 0
3.24474243440122170e-04 -9.62148399432573461e-05 0
4.63538992635383388e-04 -1.10802063568028446e-04 0
6.20496625669134669e-04 -1.23422747702375585e-04 0
7.92808549658256399e-04 -1.34352691304808310e-04 0
9.78647356694425973e-04 -1.43889582030589839e-04 0
1.17635951219761991e-03 -1.51970221530090791e-04 0
1.38375767718388817e-03 -1.58300095874951098e-04 0
1.59845292870340215e-03 -1.62752528555576886e-04 0
1.81760727003778570e-03 -1.65098569883629840e-04 0
2.03831420281249016e-03 -1.65860350820218051e-04 0
2.25929937774684789e-03 -1.66074793913068502e-04 0

