# vtk DataFile Version 2.0

ASCII

DATASET UNSTRUCTURED_GRID

POINTS 33 double 

-5.00000000000000028e-02  3.33333333349999997e-02  0.00000000000000000e+00
-5.00000000000000028e-02  9.99999999850000182e-02  0.00000000000000000e+00
-5.00000000000000097e-02  1.66666666650000017e-01  0.00000000000000000e+00
-5.00000000000000028e-02  2.33333333350000005e-01  0.00000000000000000e+00
-5.00000000000000028e-02  2.99999999999999989e-01  0.00000000000000000e+00
-5.00000000000000097e-02  3.66666666650000028e-01  0.00000000000000000e+00
-5.00000000000000028e-02  4.33333333350000016e-01  0.00000000000000000e+00
-5.00000000000000028e-02  5.00000000000000000e-01  0.00000000000000000e+00
-5.00000000000000028e-02  5.66666666649999873e-01  0.00000000000000000e+00
-5.00000000000000028e-02  6.33333333349999861e-01  0.00000000000000000e+00
-5.00000000000000028e-02  6.99999999999999845e-01  0.00000000000000000e+00
-5.00000000000000028e-02  7.66666666649999828e-01  0.00000000000000000e+00
-5.00000000000000028e-02  8.33333333349999927e-01  0.00000000000000000e+00
-5.00000000000000028e-02  8.99999999999999800e-01  0.00000000000000000e+00
-5.00000000000000028e-02  9.66666666650000006e-01  0.00000000000000000e+00
-3.33333333349999997e-02  1.00000000000000000e+00  0.00000000000000000e+00
0.00000000000000000e+00  1.00000000000000000e+00  0.00000000000000000e+00
3.33333333349999927e-02  9.99999999999999778e-01  0.00000000000000000e+00
5.00000000000000028e-02  3.33333333349999997e-02  0.00000000000000000e+00
5.00000000000000028e-02  9.99999999850000043e-02  0.00000000000000000e+00
5.00000000000000097e-02  1.66666666650000017e-01  0.00000000000000000e+00
5.00000000000000028e-02  2.33333333350000005e-01  0.00000000000000000e+00
5.00000000000000028e-02  2.99999999999999989e-01  0.00000000000000000e+00
5.00000000000000028e-02  3.66666666650000028e-01  0.00000000000000000e+00
5.00000000000000028e-02  4.33333333350000016e-01  0.00000000000000000e+00
5.00000000000000028e-02  5.00000000000000000e-01  0.00000000000000000e+00
5.00000000000000028e-02  5.66666666649999873e-01  0.00000000000000000e+00
5.00000000000000028e-02  6.33333333349999861e-01  0.00000000000000000e+00
5.00000000000000028e-02  6.99999999999999845e-01  0.00000000000000000e+00
5.00000000000000028e-02  7.66666666649999828e-01  0.00000000000000000e+00
5.00000000000000028e-02  8.33333333349999927e-01  0.00000000000000000e+00
5.00000000000000028e-02  8.99999999999999800e-01  0.00000000000000000e+00
5.00000000000000028e-02  9.66666666649999784e-01  0.00000000000000000e+00

CELLS 0 0


CELL_TYPES 0


POINT_DATA 33

VECTORS VertexNormals double

0.00000000000000000e+00 0.00000000000000000e+00 0
0.00000000000000000e+00 0.00000000000000000e+00 0
0.00000000000000000e+00 0.00000000000000000e+00 0
0.00000000000000000e+00 0.00000000000000000e+00 0
0.00000000000000000e+00 0.00000000000000000e+00 0
0.00000000000000000e+00 0.00000000000000000e+00 0
0.00000000000000000e+00 0.00000000000000000e+00 0
0.00000000000000000e+00 0.00000000000000000e+00 0
0.00000000000000000e+00 0.00000000000000000e+00 0
0.00000000000000000e+00 0.00000000000000000e+00 0
0.00000000000000000e+00 0.00000000000000000e+00 0
0.00000000000000000e+00 0.00000000000000000e+00 0
0.00000000000000000e+00 0.00000000000000000e+00 0
0.00000000000000000e+00 0.00000000000000000e+00 0
0.00000000000000000e+00 0.00000000000000000e+00 0
0.00000000000000000e+00 0.00000000000000000e+00 0
0.00000000000000000e+00 0.00000000000000000e+00 0
0.00000000000000000e+00 0.00000000000000000e+00 0
0.00000000000000000e+00 0.00000000000000000e+00 0
0.00000000000000000e+00 0.00000000000000000e+00 0
0.00000000000000000e+00 0.00000000000000000e+00 0
0.00000000000000000e+00 0.00000000000000000e+00 0
0.00000000000000000e+00 0.00000000000000000e+00 0
0.00000000000000000e+00 0.00000000000000000e+00 0
0.00000000000000000e+00 0.00000000000000000e+00 0
0.00000000000000000e+00 0.00000000000000000e+00 0
0.00000000000000000e+00 0.00000000000000000e+00 0
0.00000000000000000e+00 0.00000000000000000e+00 0
0.00000000000000000e+00 0.00000000000000000e+00 0
0.00000000000000000e+00 0.00000000000000000e+00 0
0.00000000000000000e+00 0.00000000000000000e+00 0
0.00000000000000000e+00 0.00000000000000000e+00 0
0.00000000000000000e+00 0.00000000000000000e+00 0

VECTORS Force double
9.31099357244898407e+00 -7.11372551232428325e-03 0
9.33142050520450006e+00 -3.87504608987417204e-02 0
9.39397981524519032e+00 -5.49297349324536568e-02 0
9.49055987197053241e+00 -4.77115571479655373e-02 0
9.60967330268275965e+00 -1.02342202514377912e-02 0
9.74228034632165318e+00 6.24932101363775139e-02 0
9.88102272875725518e+00 1.76157205041187426e-01 0
1.00191649357299308e+01 3.38702198097251606e-01 0
1.01506616570943731e+01 5.62214462310190677e-01 0
1.02697123939711066e+01 8.66386959149066604e-01 0
1.03679134099908339e+01 1.28325555776101652e+00 0
1.04499715129812412e+01 1.86030431272511088e+00 0
1.07008715692122998e+01 2.66339171152619647e+00 0
1.18043693865749155e+01 3.79559648032229013e+00 0
1.47568912817678513e+01 4.62635906103221828e+00 0
3.65847747096402820e+00 8.03649654266441438e+00 0
3.29507786221426402e+00 6.39575121372584121e+00 0
3.14224145898792750e+00 4.78168261718627985e+00 0
3.53889193296260585e+00 -3.73646388312055605e-03 0
3.49890154374849471e+00 1.25712565893925689e-03 0
3.45344297873886585e+00 3.42461300262812407e-02 0
3.42340720822565414e+00 9.06208489144383761e-02 0
3.41844172886260944e+00 1.65275747267200790e-01 0
3.44423768412952258e+00 2.54418662000960139e-01 0
3.50565756972436970e+00 3.55516005984618855e-01 0
3.60830758463730517e+00 4.67282100433608794e-01 0
3.76030035165705412e+00 5.89710457498318630e-01 0
3.97465181343689933e+00 7.23866232489769890e-01 0
4.27125263663689392e+00 8.72123111899051229e-01 0
4.68822717771975572e+00 1.04159376832812023e+00 0
5.38781769528073617e+00 1.24706821965745873e+00 0
6.93541292608624715e+00 1.46775768141817076e+00 0
1.01673311180682866e+01 2.19110959451643739e+00 0

VECTORS Displacement double
1.16167068078839957e-05 1.80159425104168800e-05 0
6.05256224784259220e-05 5.08942351743930864e-05 0
1.50402924815811064e-04 7.98929863098100566e-05 0
2.76289780263613469e-04 1.05190287230704676e-04 0
4.33200541839150709e-04 1.27355784506936467e-04 0
6.17797257286761240e-04 1.47238573959967690e-04 0
8.27409803113512846e-04 1.65029960416039363e-04 0
1.05921269243568509e-03 1.80711616034062424e-04 0
1.31075757462299249e-03 1.94310965123679327e-04 0
1.57887674531197956e-03 2.05482314285192539e-04 0
1.86024640743592384e-03 2.14319241690412129e-04 0
2.15197885661624899e-03 2.20933580462122765e-04 0
2.45091375889479541e-03 2.24965534606246599e-04 0
2.75322833330456703e-03 2.26602680551003718e-04 0
3.05591400370147474e-03 2.26856115479389341e-04 0
3.20698536401591537e-03 1.51293650708829013e-04 0
3.20695249404921549e-03 1.84415384951168651e-07 0
3.20696533739920709e-03 -1.50881210732169922e-04 0
1.15776632026771574e-05 -1.80037048470533025e-05 0
6.05010007663657804e-05 -5.08576088508887167e-05 0
1.50425514794020004e-04 -7.98503229537744438e-05 0
2.76248857440290849e-04 -1.05129689670394527e-04 0
4.33174446078364280e-04 -1.27265278105222901e-04 0
6.17771459794855976e-04 -1.47082123570343803e-04 0
8.27381957199741533e-04 -1.64828358290774899e-04 0
1.05920352735010834e-03 -1.80488166160492236e-04 0
1.31074826723071892e-03 -1.94090427323642841e-04 0
1.57888086187547676e-03 -2.05280514646054573e-04 0
1.86023325877829630e-03 -2.14103031208022243e-04 0
2.15196513927675944e-03 -2.20719194930127892e-04 0
2.45089778641218283e-03 -2.24739141126022141e-04 0
2.75320242299489492e-03 -2.26286856661126579e-04 0
3.05587752211367112e-03 -2.26457352244387904e-04 0

