# vtk DataFile Version 2.0

ASCII

DATASET UNSTRUCTURED_GRID

POINTS 33 double 

-5.00000000000000028e-02  3.33333333349999997e-02  0.00000000000000000e+00
-5.00000000000000028e-02  9.99999999850000182e-02  0.00000000000000000e+00
-5.00000000000000097e-02  1.66666666650000017e-01  0.00000000000000000e+00
-5.00000000000000028e-02  2.33333333350000005e-01  0.00000000000000000e+00
-5.00000000000000028e-02  2.99999999999999989e-01  0.00000000000000000e+00
-5.00000000000000097e-02  3.66666666650000028e-01  0.00000000000000000e+00
-5.00000000000000028e-02  4.33333333350000016e-01  0.00000000000000000e+00
-5.00000000000000028e-02  5.00000000000000000e-01  0.00000000000000000e+00
-5.00000000000000028e-02  5.66666666649999873e-01  0.00000000000000000e+00
-5.00000000000000028e-02  6.33333333349999861e-01  0.00000000000000000e+00
-5.00000000000000028e-02  6.99999999999999845e-01  0.00000000000000000e+00
-5.00000000000000028e-02  7.66666666649999828e-01  0.00000000000000000e+00
-5.00000000000000028e-02  8.33333333349999927e-01  0.00000000000000000e+00
-5.00000000000000028e-02  8.99999999999999800e-01  0.00000000000000000e+00
-5.00000000000000028e-02  9.66666666650000006e-01  0.00000000000000000e+00
-3.33333333349999997e-02  1.00000000000000000e+00  0.00000000000000000e+00
0.00000000000000000e+00  1.00000000000000000e+00  0.00000000000000000e+00
3.33333333349999927e-02  9.99999999999999778e-01  0.00000000000000000e+00
5.00000000000000028e-02  3.33333333349999997e-02  0.00000000000000000e+00
5.00000000000000028e-02  9.99999999850000043e-02  0.00000000000000000e+00
5.00000000000000097e-02  1.66666666650000017e-01  0.00000000000000000e+00
5.00000000000000028e-02  2.33333333350000005e-01  0.00000000000000000e+00
5.00000000000000028e-02  2.99999999999999989e-01  0.00000000000000000e+00
5.00000000000000028e-02  3.66666666650000028e-01  0.00000000000000000e+00
5.00000000000000028e-02  4.33333333350000016e-01  0.00000000000000000e+00
5.00000000000000028e-02  5.00000000000000000e-01  0.00000000000000000e+00
5.00000000000000028e-02  5.66666666649999873e-01  0.00000000000000000e+00
5.00000000000000028e-02  6.33333333349999861e-01  0.00000000000000000e+00
5.00000000000000028e-02  6.99999999999999845e-01  0.00000000000000000e+00
5.00000000000000028e-02  7.66666666649999828e-01  0.00000000000000000e+00
5.00000000000000028e-02  8.33333333349999927e-01  0.00000000000000000e+00
5.00000000000000028e-02  8.99999999999999800e-01  0.00000000000000000e+00
5.00000000000000028e-02  9.66666666649999784e-01  0.00000000000000000e+00

CELLS 0 0


CELL_TYPES 0


POINT_DATA 33

VECTORS VertexNormals double

0.00000000000000000e+00 0.00000000000000000e+00 0
0.00000000000000000e+00 0.00000000000000000e+00 0
0.00000000000000000e+00 0.00000000000000000e+00 0
0.00000000000000000e+00 0.00000000000000000e+00 0
0.00000000000000000e+00 0.00000000000000000e+00 0
0.00000000000000000e+00 0.00000000000000000e+00 0
0.00000000000000000e+00 0.00000000000000000e+00 0
0.00000000000000000e+00 0.00000000000000000e+00 0
0.00000000000000000e+00 0.00000000000000000e+00 0
0.00000000000000000e+00 0.00000000000000000e+00 0
0.00000000000000000e+00 0.00000000000000000e+00 0
0.00000000000000000e+00 0.00000000000000000e+00 0
0.00000000000000000e+00 0.00000000000000000e+00 0
0.00000000000000000e+00 0.00000000000000000e+00 0
0.00000000000000000e+00 0.00000000000000000e+00 0
0.00000000000000000e+00 0.00000000000000000e+00 0
0.00000000000000000e+00 0.00000000000000000e+00 0
0.00000000000000000e+00 0.00000000000000000e+00 0
0.00000000000000000e+00 0.00000000000000000e+00 0
0.00000000000000000e+00 0.00000000000000000e+00 0
0.00000000000000000e+00 0.00000000000000000e+00 0
0.00000000000000000e+00 0.00000000000000000e+00 0
0.00000000000000000e+00 0.00000000000000000e+00 0
0.00000000000000000e+00 0.00000000000000000e+00 0
0.00000000000000000e+00 0.00000000000000000e+00 0
0.00000000000000000e+00 0.00000000000000000e+00 0
0.00000000000000000e+00 0.00000000000000000e+00 0
0.00000000000000000e+00 0.00000000000000000e+00 0
0.00000000000000000e+00 0.00000000000000000e+00 0
0.00000000000000000e+00 0.00000000000000000e+00 0
0.00000000000000000e+00 0.00000000000000000e+00 0
0.00000000000000000e+00 0.00000000000000000e+00 0
0.00000000000000000e+00 0.00000000000000000e+00 0

VECTORS Force double
9.31690423739268248e+00 -6.76099456732970339e-03 0
9.33719152753836568e+00 -3.84265456678251766e-02 0
9.39993582490304647e+00 -5.47117533969237735e-02 0
9.49646831529011237e+00 -4.76200662680696940e-02 0
9.61519781994063472e+00 -1.02267410002941025e-02 0
9.74715019022544027e+00 6.25094809943793489e-02 0
9.88515120581322826e+00 1.76342076294402239e-01 0
1.00227247557953039e+01 3.39159214126069475e-01 0
1.01539107736715977e+01 5.62945192035227082e-01 0
1.02729608559951799e+01 8.67383995846554456e-01 0
1.03715752518857247e+01 1.28444688109823302e+00 0
1.04543000460429134e+01 1.86148890595309013e+00 0
1.07057861221859838e+01 2.66437391554065117e+00 0
1.18097831781419664e+01 3.79647275977296284e+00 0
1.47628585276742363e+01 4.62725961534485197e+00 0
3.65832783858418731e+00 8.03422184521041416e+00 0
3.29518195841202077e+00 6.39326300071463294e+00 0
3.14216768514632872e+00 4.77891418250934397e+00 0
3.53388043688623021e+00 -4.18718065269136405e-03 0
3.49384107615879502e+00 7.59665742741177236e-04 0
3.44864938913517838e+00 3.38978070165516093e-02 0
3.41863718147480533e+00 9.04942666260006717e-02 0
3.41333601743092574e+00 1.65350921459414130e-01 0
3.43851781799972134e+00 2.54623532361784033e-01 0
3.49924819749530380e+00 3.55786167903900996e-01 0
3.60130946230099891e+00 4.67581121057442817e-01 0
3.75286844529653241e+00 5.90024040200807454e-01 0
3.96699585949688460e+00 7.24150100767646077e-01 0
4.26364099571492883e+00 8.72288695252139479e-01 0
4.68086300829930213e+00 1.04155707961380495e+00 0
5.38077890771632106e+00 1.24686562825693570e+00 0
6.92894508574486423e+00 1.46736278043658563e+00 0
1.01609519584155734e+01 2.19083670306748024e+00 0

VECTORS Displacement double
1.11972833790030649e-05 1.78107123000634222e-05 0
5.93760347656690579e-05 5.09420678654466823e-05 0
1.49014955929108162e-04 8.03794606953761863e-05 0
2.74961681736958985e-04 1.06141279121625931e-04 0
4.32513484938237608e-04 1.28695600138248843e-04 0
6.17842385763534897e-04 1.48379993728209525e-04 0
8.27221460091847379e-04 1.65412565016980422e-04 0
1.05713566158708379e-03 1.79965615618923869e-04 0
1.30461326322268436e-03 1.92491358957969100e-04 0
1.56724817043780258e-03 2.03145010943277487e-04 0
1.84254058271371771e-03 2.11799774779674780e-04 0
2.12772728066527297e-03 2.18540192017614812e-04 0
2.42040284061632426e-03 2.23408423111765323e-04 0
2.71813738233761754e-03 2.26439488442279127e-04 0
3.01834169380650955e-03 2.27636345719947245e-04 0
3.16838585387801356e-03 1.52682525582419261e-04 0
3.16831409757566389e-03 2.71240280159386153e-06 0
3.16836057009453869e-03 -1.47218969302563465e-04 0
1.10547513379775306e-05 -1.75927191674439028e-05 0
5.92150988603965889e-05 -5.02965729431915687e-05 0
1.48896652750854649e-04 -7.92817269007240361e-05 0
2.74810678607398254e-04 -1.04624794736822216e-04 0
4.32379564292031059e-04 -1.26768662118803229e-04 0
6.17711756527063931e-04 -1.46048465169991659e-04 0
8.27093086235847121e-04 -1.62685137301524891e-04 0
1.05700013940934106e-03 -1.76816456656864337e-04 0
1.30447686261550783e-03 -1.88912243335810469e-04 0
1.56712555836045287e-03 -1.99172691628231855e-04 0
1.84241076953693922e-03 -2.07430735157251086e-04 0
2.12762969603642405e-03 -2.13835793145883716e-04 0
2.42031849598097794e-03 -2.18428995180292452e-04 0
2.71808623998915418e-03 -2.21191021864486110e-04 0
3.01829284320176893e-03 -2.22203801096464067e-04 0

