# vtk DataFile Version 2.0

ASCII

DATASET UNSTRUCTURED_GRID

POINTS 33 double 

-5.00000000000000028e-02  3.33333333349999997e-02  0.00000000000000000e+00
-5.00000000000000028e-02  9.99999999850000182e-02  0.00000000000000000e+00
-5.00000000000000097e-02  1.66666666650000017e-01  0.00000000000000000e+00
-5.00000000000000028e-02  2.33333333350000005e-01  0.00000000000000000e+00
-5.00000000000000028e-02  2.99999999999999989e-01  0.00000000000000000e+00
-5.00000000000000097e-02  3.66666666650000028e-01  0.00000000000000000e+00
-5.00000000000000028e-02  4.33333333350000016e-01  0.00000000000000000e+00
-5.00000000000000028e-02  5.00000000000000000e-01  0.00000000000000000e+00
-5.00000000000000028e-02  5.66666666649999873e-01  0.00000000000000000e+00
-5.00000000000000028e-02  6.33333333349999861e-01  0.00000000000000000e+00
-5.00000000000000028e-02  6.99999999999999845e-01  0.00000000000000000e+00
-5.00000000000000028e-02  7.66666666649999828e-01  0.00000000000000000e+00
-5.00000000000000028e-02  8.33333333349999927e-01  0.00000000000000000e+00
-5.00000000000000028e-02  8.99999999999999800e-01  0.00000000000000000e+00
-5.00000000000000028e-02  9.66666666650000006e-01  0.00000000000000000e+00
-3.33333333349999997e-02  1.00000000000000000e+00  0.00000000000000000e+00
0.00000000000000000e+00  1.00000000000000000e+00  0.00000000000000000e+00
3.33333333349999927e-02  9.99999999999999778e-01  0.00000000000000000e+00
5.00000000000000028e-02  3.33333333349999997e-02  0.00000000000000000e+00
5.00000000000000028e-02  9.99999999850000043e-02  0.00000000000000000e+00
5.00000000000000097e-02  1.66666666650000017e-01  0.00000000000000000e+00
5.00000000000000028e-02  2.33333333350000005e-01  0.00000000000000000e+00
5.00000000000000028e-02  2.99999999999999989e-01  0.00000000000000000e+00
5.00000000000000028e-02  3.66666666650000028e-01  0.00000000000000000e+00
5.00000000000000028e-02  4.33333333350000016e-01  0.00000000000000000e+00
5.00000000000000028e-02  5.00000000000000000e-01  0.00000000000000000e+00
5.00000000000000028e-02  5.66666666649999873e-01  0.00000000000000000e+00
5.00000000000000028e-02  6.33333333349999861e-01  0.00000000000000000e+00
5.00000000000000028e-02  6.99999999999999845e-01  0.00000000000000000e+00
5.00000000000000028e-02  7.66666666649999828e-01  0.00000000000000000e+00
5.00000000000000028e-02  8.33333333349999927e-01  0.00000000000000000e+00
5.00000000000000028e-02  8.99999999999999800e-01  0.00000000000000000e+00
5.00000000000000028e-02  9.66666666649999784e-01  0.00000000000000000e+00

CELLS 0 0


CELL_TYPES 0


POINT_DATA 33

VECTORS VertexNormals double

0.00000000000000000e+00 0.00000000000000000e+00 0
0.00000000000000000e+00 0.00000000000000000e+00 0
0.00000000000000000e+00 0.00000000000000000e+00 0
0.00000000000000000e+00 0.00000000000000000e+00 0
0.00000000000000000e+00 0.00000000000000000e+00 0
0.00000000000000000e+00 0.00000000000000000e+00 0
0.00000000000000000e+00 0.00000000000000000e+00 0
0.00000000000000000e+00 0.00000000000000000e+00 0
0.00000000000000000e+00 0.00000000000000000e+00 0
0.00000000000000000e+00 0.00000000000000000e+00 0
0.00000000000000000e+00 0.00000000000000000e+00 0
0.00000000000000000e+00 0.00000000000000000e+00 0
0.00000000000000000e+00 0.00000000000000000e+00 0
0.00000000000000000e+00 0.00000000000000000e+00 0
0.00000000000000000e+00 0.00000000000000000e+00 0
0.00000000000000000e+00 0.00000000000000000e+00 0
0.00000000000000000e+00 0.00000000000000000e+00 0
0.00000000000000000e+00 0.00000000000000000e+00 0
0.00000000000000000e+00 0.00000000000000000e+00 0
0.00000000000000000e+00 0.00000000000000000e+00 0
0.00000000000000000e+00 0.00000000000000000e+00 0
0.00000000000000000e+00 0.00000000000000000e+00 0
0.00000000000000000e+00 0.00000000000000000e+00 0
0.00000000000000000e+00 0.00000000000000000e+00 0
0.00000000000000000e+00 0.00000000000000000e+00 0
0.00000000000000000e+00 0.00000000000000000e+00 0
0.00000000000000000e+00 0.00000000000000000e+00 0
0.00000000000000000e+00 0.00000000000000000e+00 0
0.00000000000000000e+00 0.00000000000000000e+00 0
0.00000000000000000e+00 0.00000000000000000e+00 0
0.00000000000000000e+00 0.00000000000000000e+00 0
0.00000000000000000e+00 0.00000000000000000e+00 0
0.00000000000000000e+00 0.00000000000000000e+00 0

VECTORS Force double
9.33809945594743418e+00 -6.77985643930068167e-03 0
9.35811511241489491e+00 -3.83596586397181583e-02 0
9.42064905030740363e+00 -5.43399101751284655e-02 0
9.51706759183231199e+00 -4.67541599979333714e-02 0
9.63585663116116109e+00 -8.71228645548527067e-03 0
9.76796038608905093e+00 6.46611877907143362e-02 0
9.90610130813129075e+00 1.79057555316570055e-01 0
1.00437660619417990e+01 3.42332185059108229e-01 0
1.01749908811959635e+01 5.66511691891071978e-01 0
1.02941460470568753e+01 8.71317512226323698e-01 0
1.03930210615003897e+01 1.28865095313029010e+00 0
1.04761713466683855e+01 1.86585631033911370e+00 0
1.07281086743782410e+01 2.66898073604784436e+00 0
1.18322925128080669e+01 3.80203683267490522e+00 0
1.47872915318439144e+01 4.63473674138097635e+00 0
3.65081349155740265e+00 8.01376892396722518e+00 0
3.29041806113885293e+00 6.37763404664690192e+00 0
3.14111897413137431e+00 4.76671074166848463e+00 0
3.50913307600114610e+00 -4.25305917053096262e-03 0
3.46912378649955500e+00 6.35388507981734987e-04 0
3.42412556256995737e+00 3.37386474451542087e-02 0
3.39446728855405366e+00 9.04114677920496435e-02 0
3.38955472366731048e+00 1.65481657467082516e-01 0
3.41502466779758596e+00 2.55055292390250821e-01 0
3.47585651614445856e+00 3.56524742683512585e-01 0
3.57783505085379261e+00 4.68596023759236979e-01 0
3.72916244330003055e+00 5.91304956617997424e-01 0
3.94296724093848905e+00 7.25721313674675517e-01 0
4.23926014141446750e+00 8.74202305815296010e-01 0
4.65614968654610273e+00 1.04396103724996703e+00 0
5.35583267694769294e+00 1.24998671983291065e+00 0
6.90384375834337582e+00 1.47164484855772870e+00 0
1.01327648352304163e+01 2.19480395774531933e+00 0

VECTORS Displacement double
1.18321799746034487e-05 1.81411542587140868e-05 0
6.08291584449245897e-05 5.08765149388961757e-05 0
1.50138563442032090e-04 7.89898442053806082e-05 0
2.73192857948970883e-04 1.01959842254713758e-04 0
4.22758754010962574e-04 1.20413041151254741e-04 0
5.93767495827966286e-04 1.35521030471058747e-04 0
7.82358075012417860e-04 1.47960812429788686e-04 0
9.85422755564687759e-04 1.58268362058257978e-04 0
1.20072453065855986e-03 1.66733896718875197e-04 0
1.42577657726616555e-03 1.73349578934296658e-04 0
1.65825096339075563e-03 1.78289336441430122e-04 0
1.89599870685648944e-03 1.81588971240577218e-04 0
2.13679874170976877e-03 1.83432840650984427e-04 0
2.37900665780785194e-03 1.84202738459397943e-04 0
2.62141475063849654e-03 1.84385980415672276e-04 0
2.74245376295260360e-03 1.23846283940166240e-04 0
2.74242859793970848e-03 2.72509331571730981e-06 0
2.74243933299806548e-03 -1.18354424531834368e-04 0
1.16414166494428176e-05 -1.78520821367288534e-05 0
6.06288415391397677e-05 -5.00266839903153670e-05 0
1.49970554460482981e-04 -7.75766430959943756e-05 0
2.73009464125407433e-04 -1.00041459889308764e-04 0
4.22582188629255350e-04 -1.17988784125907321e-04 0
5.93585904718249850e-04 -1.32597827175098360e-04 0
7.82203980949819832e-04 -1.44564341520759799e-04 0
9.85281004401215681e-04 -1.54432805762910578e-04 0
1.20060143289055059e-03 -1.62514877190598827e-04 0
1.42567751626514346e-03 -1.68830087552913834e-04 0
1.65814974629484692e-03 -1.73484300360548236e-04 0
1.89593195434989729e-03 -1.76575896557317044e-04 0
2.13674361560727607e-03 -1.78268534866626204e-04 0
2.37897186848985307e-03 -1.78868321627548917e-04 0
2.62136805705575618e-03 -1.78919814714970142e-04 0

