# vtk DataFile Version 2.0

ASCII

DATASET UNSTRUCTURED_GRID

POINTS 33 double 

-5.00000000000000028e-02  3.33333333349999997e-02  0.00000000000000000e+00
-5.00000000000000028e-02  9.99999999850000182e-02  0.00000000000000000e+00
-5.00000000000000097e-02  1.66666666650000017e-01  0.00000000000000000e+00
-5.00000000000000028e-02  2.33333333350000005e-01  0.00000000000000000e+00
-5.00000000000000028e-02  2.99999999999999989e-01  0.00000000000000000e+00
-5.00000000000000097e-02  3.66666666650000028e-01  0.00000000000000000e+00
-5.00000000000000028e-02  4.33333333350000016e-01  0.00000000000000000e+00
-5.00000000000000028e-02  5.00000000000000000e-01  0.00000000000000000e+00
-5.00000000000000028e-02  5.66666666649999873e-01  0.00000000000000000e+00
-5.00000000000000028e-02  6.33333333349999861e-01  0.00000000000000000e+00
-5.00000000000000028e-02  6.99999999999999845e-01  0.00000000000000000e+00
-5.00000000000000028e-02  7.66666666649999828e-01  0.00000000000000000e+00
-5.00000000000000028e-02  8.33333333349999927e-01  0.00000000000000000e+00
-5.00000000000000028e-02  8.99999999999999800e-01  0.00000000000000000e+00
-5.00000000000000028e-02  9.66666666650000006e-01  0.00000000000000000e+00
-3.33333333349999997e-02  1.00000000000000000e+00  0.00000000000000000e+00
0.00000000000000000e+00  1.00000000000000000e+00  0.00000000000000000e+00
3.33333333349999927e-02  9.99999999999999778e-01  0.00000000000000000e+00
5.00000000000000028e-02  3.33333333349999997e-02  0.00000000000000000e+00
5.00000000000000028e-02  9.99999999850000043e-02  0.00000000000000000e+00
5.00000000000000097e-02  1.66666666650000017e-01  0.00000000000000000e+00
5.00000000000000028e-02  2.33333333350000005e-01  0.00000000000000000e+00
5.00000000000000028e-02  2.99999999999999989e-01  0.00000000000000000e+00
5.00000000000000028e-02  3.66666666650000028e-01  0.00000000000000000e+00
5.00000000000000028e-02  4.33333333350000016e-01  0.00000000000000000e+00
5.00000000000000028e-02  5.00000000000000000e-01  0.00000000000000000e+00
5.00000000000000028e-02  5.66666666649999873e-01  0.00000000000000000e+00
5.00000000000000028e-02  6.33333333349999861e-01  0.00000000000000000e+00
5.00000000000000028e-02  6.99999999999999845e-01  0.00000000000000000e+00
5.00000000000000028e-02  7.66666666649999828e-01  0.00000000000000000e+00
5.00000000000000028e-02  8.33333333349999927e-01  0.00000000000000000e+00
5.00000000000000028e-02  8.99999999999999800e-01  0.00000000000000000e+00
5.00000000000000028e-02  9.66666666649999784e-01  0.00000000000000000e+00

CELLS 0 0


CELL_TYPES 0


POINT_DATA 33

VECTORS VertexNormals double

0.00000000000000000e+00 0.00000000000000000e+00 0
0.00000000000000000e+00 0.00000000000000000e+00 0
0.00000000000000000e+00 0.00000000000000000e+00 0
0.00000000000000000e+00 0.00000000000000000e+00 0
0.00000000000000000e+00 0.00000000000000000e+00 0
0.00000000000000000e+00 0.00000000000000000e+00 0
0.00000000000000000e+00 0.00000000000000000e+00 0
0.00000000000000000e+00 0.00000000000000000e+00 0
0.00000000000000000e+00 0.00000000000000000e+00 0
0.00000000000000000e+00 0.00000000000000000e+00 0
0.00000000000000000e+00 0.00000000000000000e+00 0
0.00000000000000000e+00 0.00000000000000000e+00 0
0.00000000000000000e+00 0.00000000000000000e+00 0
0.00000000000000000e+00 0.00000000000000000e+00 0
0.00000000000000000e+00 0.00000000000000000e+00 0
0.00000000000000000e+00 0.00000000000000000e+00 0
0.00000000000000000e+00 0.00000000000000000e+00 0
0.00000000000000000e+00 0.00000000000000000e+00 0
0.00000000000000000e+00 0.00000000000000000e+00 0
0.00000000000000000e+00 0.00000000000000000e+00 0
0.00000000000000000e+00 0.00000000000000000e+00 0
0.00000000000000000e+00 0.00000000000000000e+00 0
0.00000000000000000e+00 0.00000000000000000e+00 0
0.00000000000000000e+00 0.00000000000000000e+00 0
0.00000000000000000e+00 0.00000000000000000e+00 0
0.00000000000000000e+00 0.00000000000000000e+00 0
0.00000000000000000e+00 0.00000000000000000e+00 0
0.00000000000000000e+00 0.00000000000000000e+00 0
0.00000000000000000e+00 0.00000000000000000e+00 0
0.00000000000000000e+00 0.00000000000000000e+00 0
0.00000000000000000e+00 0.00000000000000000e+00 0
0.00000000000000000e+00 0.00000000000000000e+00 0
0.00000000000000000e+00 0.00000000000000000e+00 0

VECTORS Force double
9.32943131254229918e+00 -7.15702573830998869e-03 0
9.34980444089027074e+00 -3.87977068028974095e-02 0
9.41232917725960760e+00 -5.49967037385015178e-02 0
9.50871003888189215e+00 -4.77995038910985701e-02 0
9.62747013148036679e+00 -1.01190991823976693e-02 0
9.75982803723809589e+00 6.30383857938705133e-02 0
9.89841752287826715e+00 1.77187626854529962e-01 0
1.00363430257832320e+01 3.40288487368925696e-01 0
1.01677750929146420e+01 5.64591893228082675e-01 0
1.02873732854515207e+01 8.69648706767496504e-01 0
1.03867639567878616e+01 1.28708604578607888e+00 0
1.04700885086077164e+01 1.86418734394250940e+00 0
1.07217168405993064e+01 2.66711580571156004e+00 0
1.18253543617694010e+01 3.79983453774921864e+00 0
1.47792223570293721e+01 4.63209540872284453e+00 0
3.65253139103033586e+00 8.01905368967374166e+00 0
3.29132603907987598e+00 6.38188418363478505e+00 0
3.14106216992791776e+00 4.77031070278689917e+00 0
3.51450373115380366e+00 -3.72630716833578964e-03 0
3.47466930587176348e+00 1.22786088265300570e-03 0
3.42941343460690984e+00 3.41764337271988558e-02 0
3.39949734142804383e+00 9.05550892090808829e-02 0
3.39451043975367561e+00 1.65253570765389601e-01 0
3.42027740931163216e+00 2.54510794743228463e-01 0
3.48164661837907907e+00 3.55838211910657121e-01 0
3.58407827189550288e+00 4.67916275430819373e-01 0
3.73579751820593886e+00 5.90656064360543853e-01 0
3.95010944109468287e+00 7.25093656794761676e-01 0
4.24688819101584869e+00 8.73643592219708442e-01 0
4.66393400202302288e+00 1.04346975146768073e+00 0
5.36334498824543537e+00 1.24944148088167384e+00 0
6.91075732840242107e+00 1.47086572162460882e+00 0
1.01397854119560353e+01 2.19402911769770714e+00 0

VECTORS Displacement double
1.10434075680147608e-05 1.75229662534509926e-05 0
5.88951375484416013e-05 5.01931638350322298e-05 0
1.48204494550884382e-04 7.93341281669741546e-05 0
2.74117907786785621e-04 1.04597256640485178e-04 0
4.31006963782308897e-04 1.25612717776270023e-04 0
6.12992458981788261e-04 1.42605855292171851e-04 0
8.15196852315457272e-04 1.56504858051804404e-04 0
1.03413522543203355e-03 1.67487228764342150e-04 0
1.26568771987225180e-03 1.75530289609423162e-04 0
1.50591762553049660e-03 1.81355933231834002e-04 0
1.75267311827636239e-03 1.85777668984192133e-04 0
2.00460381423998944e-03 1.89241731385152460e-04 0
2.26055007993920505e-03 1.91588723438424450e-04 0
2.51875299548926131e-03 1.92739429809839587e-04 0
2.77753487312968088e-03 1.93079772523716085e-04 0
2.90680702564034485e-03 1.28442451104044406e-04 0
2.90677376663297116e-03 -8.86952148708119115e-07 0
2.90677353624416244e-03 -1.30166649931231501e-04 0
1.10684808152866296e-05 -1.76494693539742279e-05 0
5.89267668214292148e-05 -5.05098465889421722e-05 0
1.48243368812751874e-04 -7.98203369220062362e-05 0
2.74107415763099943e-04 -1.05202774412642248e-04 0
4.31048763277889200e-04 -1.26384355656851763e-04 0
6.13042043807621542e-04 -1.43560218222254111e-04 0
8.15227726980048391e-04 -1.57648471101745483e-04 0
1.03415444936430512e-03 -1.68811110046414168e-04 0
1.26570085582503543e-03 -1.77017477479988317e-04 0
1.50595034061912995e-03 -1.82971029892457711e-04 0
1.75267852417208586e-03 -1.87488839971390408e-04 0
2.00459616015686605e-03 -1.91039972911566657e-04 0
2.26053788513886885e-03 -1.93431716491608487e-04 0
2.51871358253175298e-03 -1.94535900548140365e-04 0
2.77749781416557900e-03 -1.94812994809905288e-04 0

