# vtk DataFile Version 2.0

ASCII

DATASET UNSTRUCTURED_GRID

POINTS 33 double 

-5.00000000000000028e-02  3.33333333349999997e-02  0.00000000000000000e+00
-5.00000000000000028e-02  9.99999999850000182e-02  0.00000000000000000e+00
-5.00000000000000097e-02  1.66666666650000017e-01  0.00000000000000000e+00
-5.00000000000000028e-02  2.33333333350000005e-01  0.00000000000000000e+00
-5.00000000000000028e-02  2.99999999999999989e-01  0.00000000000000000e+00
-5.00000000000000097e-02  3.66666666650000028e-01  0.00000000000000000e+00
-5.00000000000000028e-02  4.33333333350000016e-01  0.00000000000000000e+00
-5.00000000000000028e-02  5.00000000000000000e-01  0.00000000000000000e+00
-5.00000000000000028e-02  5.66666666649999873e-01  0.00000000000000000e+00
-5.00000000000000028e-02  6.33333333349999861e-01  0.00000000000000000e+00
-5.00000000000000028e-02  6.99999999999999845e-01  0.00000000000000000e+00
-5.00000000000000028e-02  7.66666666649999828e-01  0.00000000000000000e+00
-5.00000000000000028e-02  8.33333333349999927e-01  0.00000000000000000e+00
-5.00000000000000028e-02  8.99999999999999800e-01  0.00000000000000000e+00
-5.00000000000000028e-02  9.66666666650000006e-01  0.00000000000000000e+00
-3.33333333349999997e-02  1.00000000000000000e+00  0.00000000000000000e+00
0.00000000000000000e+00  1.00000000000000000e+00  0.00000000000000000e+00
3.33333333349999927e-02  9.99999999999999778e-01  0.00000000000000000e+00
5.00000000000000028e-02  3.33333333349999997e-02  0.00000000000000000e+00
5.00000000000000028e-02  9.99999999850000043e-02  0.00000000000000000e+00
5.00000000000000097e-02  1.66666666650000017e-01  0.00000000000000000e+00
5.00000000000000028e-02  2.33333333350000005e-01  0.00000000000000000e+00
5.00000000000000028e-02  2.99999999999999989e-01  0.00000000000000000e+00
5.00000000000000028e-02  3.66666666650000028e-01  0.00000000000000000e+00
5.00000000000000028e-02  4.33333333350000016e-01  0.00000000000000000e+00
5.00000000000000028e-02  5.00000000000000000e-01  0.00000000000000000e+00
5.00000000000000028e-02  5.66666666649999873e-01  0.00000000000000000e+00
5.00000000000000028e-02  6.33333333349999861e-01  0.00000000000000000e+00
5.00000000000000028e-02  6.99999999999999845e-01  0.00000000000000000e+00
5.00000000000000028e-02  7.66666666649999828e-01  0.00000000000000000e+00
5.00000000000000028e-02  8.33333333349999927e-01  0.00000000000000000e+00
5.00000000000000028e-02  8.99999999999999800e-01  0.00000000000000000e+00
5.00000000000000028e-02  9.66666666649999784e-01  0.00000000000000000e+00

CELLS 0 0


CELL_TYPES 0


POINT_DATA 33

VECTORS VertexNormals double

0.00000000000000000e+00 0.00000000000000000e+00 0
0.00000000000000000e+00 0.00000000000000000e+00 0
0.00000000000000000e+00 0.00000000000000000e+00 0
0.00000000000000000e+00 0.00000000000000000e+00 0
0.00000000000000000e+00 0.00000000000000000e+00 0
0.00000000000000000e+00 0.00000000000000000e+00 0
0.00000000000000000e+00 0.00000000000000000e+00 0
0.00000000000000000e+00 0.00000000000000000e+00 0
0.00000000000000000e+00 0.00000000000000000e+00 0
0.00000000000000000e+00 0.00000000000000000e+00 0
0.00000000000000000e+00 0.00000000000000000e+00 0
0.00000000000000000e+00 0.00000000000000000e+00 0
0.00000000000000000e+00 0.00000000000000000e+00 0
0.00000000000000000e+00 0.00000000000000000e+00 0
0.00000000000000000e+00 0.00000000000000000e+00 0
0.00000000000000000e+00 0.00000000000000000e+00 0
0.00000000000000000e+00 0.00000000000000000e+00 0
0.00000000000000000e+00 0.00000000000000000e+00 0
0.00000000000000000e+00 0.00000000000000000e+00 0
0.00000000000000000e+00 0.00000000000000000e+00 0
0.00000000000000000e+00 0.00000000000000000e+00 0
0.00000000000000000e+00 0.00000000000000000e+00 0
0.00000000000000000e+00 0.00000000000000000e+00 0
0.00000000000000000e+00 0.00000000000000000e+00 0
0.00000000000000000e+00 0.00000000000000000e+00 0
0.00000000000000000e+00 0.00000000000000000e+00 0
0.00000000000000000e+00 0.00000000000000000e+00 0
0.00000000000000000e+00 0.00000000000000000e+00 0
0.00000000000000000e+00 0.00000000000000000e+00 0
0.00000000000000000e+00 0.00000000000000000e+00 0
0.00000000000000000e+00 0.00000000000000000e+00 0
0.00000000000000000e+00 0.00000000000000000e+00 0
0.00000000000000000e+00 0.00000000000000000e+00 0

VECTORS Force double
9.08416686155961450e+00 -6.49659045261551278e-03 0
9.10483017576287068e+00 -3.66326319218866145e-02 0
9.16771150192738737e+00 -5.14195321826119156e-02 0
9.26450523647833535e+00 -4.29743473871164738e-02 0
9.38370654504531743e+00 -4.22987777465518022e-03 0
9.51653418722547073e+00 6.97586319664248306e-02 0
9.65561754875864509e+00 1.84486443514138704e-01 0
9.79392596670587956e+00 3.47913316939591599e-01 0
9.92533881884177838e+00 5.72454545228190836e-01 0
1.00443954550526495e+01 8.78047565986554868e-01 0
1.01428799816580373e+01 1.29673379707732028e+00 0
1.02252926324203628e+01 1.87613753162619967e+00 0
1.04772284323292695e+01 2.68261512536644364e+00 0
1.15865320046798317e+01 3.82094318700093671e+00 0
1.45555714511401000e+01 4.65485954459331097e+00 0
3.68118174258390418e+00 8.22892559571785043e+00 0
3.31862874700555333e+00 6.58587935231399157e+00 0
3.16991951270761074e+00 4.96474929788600683e+00 0
3.86907645636211228e+00 -3.57251217953127604e-03 0
3.82813225016148140e+00 1.79709238030234747e-03 0
3.78136535804419482e+00 3.60808905627415313e-02 0
3.75026736363039515e+00 9.45365684574211995e-02 0
3.74479561866348876e+00 1.71753265196752131e-01 0
3.77097351269194414e+00 2.63634401069706259e-01 0
3.83376553355010596e+00 3.67431982396879686e-01 0
3.93861107354465112e+00 4.81681865780637208e-01 0
4.09354451859481117e+00 6.06199889494383193e-01 0
4.31175149807924107e+00 7.41906347030328650e-01 0
4.61330413216602597e+00 8.91142436629585921e-01 0
5.03653117264835704e+00 1.06115656525020330e+00 0
5.74508430832655215e+00 1.26698438419949855e+00 0
7.30976001105585205e+00 1.48793178008185945e+00 0
1.05745560546636188e+01 2.21363326974032759e+00 0

VECTORS Displacement double
9.05215470079277871e-06 1.39073543111691635e-05 0
4.67845459661687501e-05 3.91304997575192624e-05 0
1.16015730555594392e-04 6.13900166632775219e-05 0
2.12941029741415459e-04 8.06430084608399052e-05 0
3.33251198571745213e-04 9.69753896239427816e-05 0
4.73179131470343513e-04 1.11120100066093859e-04 0
6.30734589263777620e-04 1.24234853954129689e-04 0
8.05317041863185825e-04 1.36504733589537687e-04 0
9.95530286018557909e-04 1.47221510165502622e-04 0
1.19868646218746801e-03 1.56100837729966153e-04 0
1.41251440670480950e-03 1.63225025145686691e-04 0
1.63448942584982050e-03 1.68361377794965704e-04 0
1.86175468837554816e-03 1.71555148683093256e-04 0
2.09182947071968710e-03 1.73029465713596322e-04 0
2.32254494419804284e-03 1.73360993338995294e-04 0
2.43771735877821270e-03 1.15780870295931546e-04 0
2.43765360473022609e-03 5.91725714692972566e-07 0
2.43764975044486777e-03 -1.14549194851891421e-04 0
9.04131605502642621e-06 -1.39109564907265686e-05 0
4.67627568862206879e-05 -3.91856316529872107e-05 0
1.15973213601077210e-04 -6.14685690511246368e-05 0
2.12886926170687473e-04 -8.07172649034606241e-05 0
3.33183834503794651e-04 -9.70206206081930533e-05 0
4.73090962118258664e-04 -1.11117728905300728e-04 0
6.30632697006282771e-04 -1.24119902521398174e-04 0
8.05229925064862139e-04 -1.36248357031389778e-04 0
9.95433527015037074e-04 -1.46814542918321161e-04 0
1.19857579221024847e-03 -1.55540337464411116e-04 0
1.41239434685561690e-03 -1.62518261104838737e-04 0
1.63439076861056050e-03 -1.67491671465391887e-04 0
1.86168307174985502e-03 -1.70540166784012630e-04 0
2.09176774948016155e-03 -1.71929609748652394e-04 0
2.32248204715332753e-03 -1.72153535300938101e-04 0

