# vtk DataFile Version 2.0

ASCII

DATASET UNSTRUCTURED_GRID

POINTS 33 double 

-5.00000000000000028e-02  3.33333333349999997e-02  0.00000000000000000e+00
-5.00000000000000028e-02  9.99999999850000182e-02  0.00000000000000000e+00
-5.00000000000000097e-02  1.66666666650000017e-01  0.00000000000000000e+00
-5.00000000000000028e-02  2.33333333350000005e-01  0.00000000000000000e+00
-5.00000000000000028e-02  2.99999999999999989e-01  0.00000000000000000e+00
-5.00000000000000097e-02  3.66666666650000028e-01  0.00000000000000000e+00
-5.00000000000000028e-02  4.33333333350000016e-01  0.00000000000000000e+00
-5.00000000000000028e-02  5.00000000000000000e-01  0.00000000000000000e+00
-5.00000000000000028e-02  5.66666666649999873e-01  0.00000000000000000e+00
-5.00000000000000028e-02  6.33333333349999861e-01  0.00000000000000000e+00
-5.00000000000000028e-02  6.99999999999999845e-01  0.00000000000000000e+00
-5.00000000000000028e-02  7.66666666649999828e-01  0.00000000000000000e+00
-5.00000000000000028e-02  8.33333333349999927e-01  0.00000000000000000e+00
-5.00000000000000028e-02  8.99999999999999800e-01  0.00000000000000000e+00
-5.00000000000000028e-02  9.66666666650000006e-01  0.00000000000000000e+00
-3.33333333349999997e-02  1.00000000000000000e+00  0.00000000000000000e+00
0.00000000000000000e+00  1.00000000000000000e+00  0.00000000000000000e+00
3.33333333349999927e-02  9.99999999999999778e-01  0.00000000000000000e+00
5.00000000000000028e-02  3.33333333349999997e-02  0.00000000000000000e+00
5.00000000000000028e-02  9.99999999850000043e-02  0.00000000000000000e+00
5.00000000000000097e-02  1.66666666650000017e-01  0.00000000000000000e+00
5.00000000000000028e-02  2.33333333350000005e-01  0.00000000000000000e+00
5.00000000000000028e-02  2.99999999999999989e-01  0.00000000000000000e+00
5.00000000000000028e-02  3.66666666650000028e-01  0.00000000000000000e+00
5.00000000000000028e-02  4.33333333350000016e-01  0.00000000000000000e+00
5.00000000000000028e-02  5.00000000000000000e-01  0.00000000000000000e+00
5.00000000000000028e-02  5.66666666649999873e-01  0.00000000000000000e+00
5.00000000000000028e-02  6.33333333349999861e-01  0.00000000000000000e+00
5.00000000000000028e-02  6.99999999999999845e-01  0.00000000000000000e+00
5.00000000000000028e-02  7.66666666649999828e-01  0.00000000000000000e+00
5.00000000000000028e-02  8.33333333349999927e-01  0.00000000000000000e+00
5.00000000000000028e-02  8.99999999999999800e-01  0.00000000000000000e+00
5.00000000000000028e-02  9.66666666649999784e-01  0.00000000000000000e+00

CELLS 0 0


CELL_TYPES 0


POINT_DATA 33

VECTORS VertexNormals double

0.00000000000000000e+00 0.00000000000000000e+00 0
0.00000000000000000e+00 0.00000000000000000e+00 0
0.00000000000000000e+00 0.00000000000000000e+00 0
0.00000000000000000e+00 0.00000000000000000e+00 0
0.00000000000000000e+00 0.00000000000000000e+00 0
0.00000000000000000e+00 0.00000000000000000e+00 0
0.00000000000000000e+00 0.00000000000000000e+00 0
0.00000000000000000e+00 0.00000000000000000e+00 0
0.00000000000000000e+00 0.00000000000000000e+00 0
0.00000000000000000e+00 0.00000000000000000e+00 0
0.00000000000000000e+00 0.00000000000000000e+00 0
0.00000000000000000e+00 0.00000000000000000e+00 0
0.00000000000000000e+00 0.00000000000000000e+00 0
0.00000000000000000e+00 0.00000000000000000e+00 0
0.00000000000000000e+00 0.00000000000000000e+00 0
0.00000000000000000e+00 0.00000000000000000e+00 0
0.00000000000000000e+00 0.00000000000000000e+00 0
0.00000000000000000e+00 0.00000000000000000e+00 0
0.00000000000000000e+00 0.00000000000000000e+00 0
0.00000000000000000e+00 0.00000000000000000e+00 0
0.00000000000000000e+00 0.00000000000000000e+00 0
0.00000000000000000e+00 0.00000000000000000e+00 0
0.00000000000000000e+00 0.00000000000000000e+00 0
0.00000000000000000e+00 0.00000000000000000e+00 0
0.00000000000000000e+00 0.00000000000000000e+00 0
0.00000000000000000e+00 0.00000000000000000e+00 0
0.00000000000000000e+00 0.00000000000000000e+00 0
0.00000000000000000e+00 0.00000000000000000e+00 0
0.00000000000000000e+00 0.00000000000000000e+00 0
0.00000000000000000e+00 0.00000000000000000e+00 0
0.00000000000000000e+00 0.00000000000000000e+00 0
0.00000000000000000e+00 0.00000000000000000e+00 0
0.00000000000000000e+00 0.00000000000000000e+00 0

VECTORS Force double
9.32140747916383283e+00 -6.78348875189280741e-03 0
9.34180945432910015e+00 -3.82049847334658688e-02 0
9.40478655936022179e+00 -5.43799677689980471e-02 0
9.50164972448385292e+00 -4.74554523259655275e-02 0
9.62059541967865250e+00 -1.02820794088480764e-02 0
9.75272632255457417e+00 6.23757449660863952e-02 0
9.89092906389053361e+00 1.76155102871629249e-01 0
1.00285087947043277e+01 3.38898994385936958e-01 0
1.01594735914252148e+01 5.62738915757762026e-01 0
1.02782746577234256e+01 8.67396767542213398e-01 0
1.03768033118567509e+01 1.28481355942901376e+00 0
1.04598389390566524e+01 1.86229840877233399e+00 0
1.07120968881720717e+01 2.66564648340987009e+00 0
1.18169867082328981e+01 3.79823912107262940e+00 0
1.47713898602656748e+01 4.62965210003522376e+00 0
3.65687089017109423e+00 8.02934534435545544e+00 0
3.29436666948908252e+00 6.38947950372695317e+00 0
3.14249896456430156e+00 4.77586309399618703e+00 0
3.52740553628167053e+00 -3.96761925824735094e-03 0
3.48739883072055212e+00 9.78029885310174613e-04 0
3.44229557171325062e+00 3.39405125214676667e-02 0
3.41258007785339101e+00 9.03694453278534593e-02 0
3.40759072360088044e+00 1.65130802839154794e-01 0
3.43306777949305442e+00 2.54400381687224342e-01 0
3.49403903848843767e+00 3.55647086530584855e-01 0
3.59614695679966045e+00 4.67589941461523051e-01 0
3.74753503572046620e+00 5.90185208751085932e-01 0
3.96140420485706901e+00 7.24419169695634357e-01 0
4.25788616326951619e+00 8.72626965931126652e-01 0
4.67521522841756632e+00 1.04201655961165263e+00 0
5.37553336419308625e+00 1.24754906090452744e+00 0
6.92409205356894031e+00 1.46850643967238792e+00 0
1.01557886169745881e+01 2.19193104674945394e+00 0

VECTORS Displacement double
1.07108245560110594e-05 1.72144464786128751e-05 0
5.69707175840417665e-05 4.96023062930948542e-05 0
1.44031821286871062e-04 7.92627653389730788e-05 0
2.68462955831200775e-04 1.06109506199189455e-04 0
4.26445267592641202e-04 1.29671641951026095e-04 0
6.12942684292273779e-04 1.49514703187598135e-04 0
8.23009964768044622e-04 1.66245224126002295e-04 0
1.05312908875300221e-03 1.80270295057185777e-04 0
1.29974770438148692e-03 1.91654314638292449e-04 0
1.55954552152200556e-03 2.00665935105167633e-04 0
1.82955681532156046e-03 2.07299719183135715e-04 0
2.10640288115172868e-03 2.11597657520178035e-04 0
2.38712439543862284e-03 2.14051442153052928e-04 0
2.66979645119163689e-03 2.15339800349695148e-04 0
2.95337971981150717e-03 2.15885057104565404e-04 0
3.09511866213299167e-03 1.45042402127361667e-04 0
3.09507765035968007e-03 3.28738895939627583e-06 0
3.09508736616636877e-03 -1.38437553752918346e-04 0
1.05250371765445966e-05 -1.68998421733007136e-05 0
5.67398547305913580e-05 -4.86670323419648404e-05 0
1.43824370672069289e-04 -7.76410967080713309e-05 0
2.68253624275504427e-04 -1.03854411967238086e-04 0
4.26246935397345543e-04 -1.26799815560826802e-04 0
6.12760038455871796e-04 -1.46087436036628935e-04 0
8.22855380166318830e-04 -1.62308317147856485e-04 0
1.05297878438877354e-03 -1.75829011125972661e-04 0
1.29960446327104804e-03 -1.86730379090754985e-04 0
1.55941777511813830e-03 -1.95343794421499317e-04 0
1.82943626364522960e-03 -2.01613232700480557e-04 0
2.10632521526520804e-03 -2.05617129437091450e-04 0
2.38705938549161993e-03 -2.07850100123626604e-04 0
2.66976492633278330e-03 -2.08925637616436669e-04 0
2.95333091863912971e-03 -2.09309247066583634e-04 0

