# vtk DataFile Version 2.0

ASCII

DATASET UNSTRUCTURED_GRID

POINTS 33 float 

-5.0000000000000003e-02  3.3333333335000000e-02  0.0000000000000000e+00
-5.0000000000000003e-02  9.9999999985000018e-02  0.0000000000000000e+00
-5.0000000000000003e-02  1.6666666665000002e-01  0.0000000000000000e+00
-5.0000000000000003e-02  2.3333333334999998e-01  0.0000000000000000e+00
-5.0000000000000003e-02  2.9999999999999993e-01  0.0000000000000000e+00
-5.0000000000000003e-02  3.6666666665000003e-01  0.0000000000000000e+00
-5.0000000000000003e-02  4.3333333335000002e-01  0.0000000000000000e+00
-5.0000000000000003e-02  5.0000000000000000e-01  0.0000000000000000e+00
-5.0000000000000003e-02  5.6666666664999987e-01  0.0000000000000000e+00
-5.0000000000000003e-02  6.3333333334999986e-01  0.0000000000000000e+00
-5.0000000000000003e-02  6.9999999999999984e-01  0.0000000000000000e+00
-5.0000000000000003e-02  7.6666666664999994e-01  0.0000000000000000e+00
-4.9999999999999996e-02  8.3333333334999982e-01  0.0000000000000000e+00
-5.0000000000000003e-02  8.9999999999999991e-01  0.0000000000000000e+00
-5.0000000000000003e-02  9.6666666664999990e-01  0.0000000000000000e+00
-3.3333333335000000e-02  9.9999999999999978e-01  0.0000000000000000e+00
0.0000000000000000e+00  1.0000000000000000e+00  0.0000000000000000e+00
3.3333333335000007e-02  1.0000000000000000e+00  0.0000000000000000e+00
5.0000000000000003e-02  3.3333333335000000e-02  0.0000000000000000e+00
5.0000000000000003e-02  9.9999999985000004e-02  0.0000000000000000e+00
5.0000000000000003e-02  1.6666666664999999e-01  0.0000000000000000e+00
5.0000000000000003e-02  2.3333333334999998e-01  0.0000000000000000e+00
5.0000000000000003e-02  2.9999999999999993e-01  0.0000000000000000e+00
5.0000000000000003e-02  3.6666666665000003e-01  0.0000000000000000e+00
5.0000000000000003e-02  4.3333333334999991e-01  0.0000000000000000e+00
5.0000000000000003e-02  5.0000000000000000e-01  0.0000000000000000e+00
5.0000000000000003e-02  5.6666666664999987e-01  0.0000000000000000e+00
5.0000000000000003e-02  6.3333333334999997e-01  0.0000000000000000e+00
5.0000000000000003e-02  6.9999999999999984e-01  0.0000000000000000e+00
5.0000000000000003e-02  7.6666666664999994e-01  0.0000000000000000e+00
5.0000000000000003e-02  8.3333333334999993e-01  0.0000000000000000e+00
5.0000000000000010e-02  8.9999999999999991e-01  0.0000000000000000e+00
5.0000000000000003e-02  9.6666666664999990e-01  0.0000000000000000e+00

CELLS 0 0


CELL_TYPES 0


POINT_DATA 33

VECTORS VertexNormals float

0.0000000000000000e+00 0.0000000000000000e+00 0
0.0000000000000000e+00 0.0000000000000000e+00 0
0.0000000000000000e+00 0.0000000000000000e+00 0
0.0000000000000000e+00 0.0000000000000000e+00 0
0.0000000000000000e+00 0.0000000000000000e+00 0
0.0000000000000000e+00 0.0000000000000000e+00 0
0.0000000000000000e+00 0.0000000000000000e+00 0
0.0000000000000000e+00 0.0000000000000000e+00 0
0.0000000000000000e+00 0.0000000000000000e+00 0
0.0000000000000000e+00 0.0000000000000000e+00 0
0.0000000000000000e+00 0.0000000000000000e+00 0
0.0000000000000000e+00 0.0000000000000000e+00 0
0.0000000000000000e+00 0.0000000000000000e+00 0
0.0000000000000000e+00 0.0000000000000000e+00 0
0.0000000000000000e+00 0.0000000000000000e+00 0
0.0000000000000000e+00 0.0000000000000000e+00 0
0.0000000000000000e+00 0.0000000000000000e+00 0
0.0000000000000000e+00 0.0000000000000000e+00 0
0.0000000000000000e+00 0.0000000000000000e+00 0
0.0000000000000000e+00 0.0000000000000000e+00 0
0.0000000000000000e+00 0.0000000000000000e+00 0
0.0000000000000000e+00 0.0000000000000000e+00 0
0.0000000000000000e+00 0.0000000000000000e+00 0
0.0000000000000000e+00 0.0000000000000000e+00 0
0.0000000000000000e+00 0.0000000000000000e+00 0
0.0000000000000000e+00 0.0000000000000000e+00 0
0.0000000000000000e+00 0.0000000000000000e+00 0
0.0000000000000000e+00 0.0000000000000000e+00 0
0.0000000000000000e+00 0.0000000000000000e+00 0
0.0000000000000000e+00 0.0000000000000000e+00 0
0.0000000000000000e+00 0.0000000000000000e+00 0
0.0000000000000000e+00 0.0000000000000000e+00 0
0.0000000000000000e+00 0.0000000000000000e+00 0

VECTORS Stress float
1.2455373621892087e+02 -4.7142119448057462e+00 0
1.2453289638979312e+02 -1.0494525875496958e+01 0
1.2415912523587602e+02 -1.5276484372799393e+01 0
1.2318034286026239e+02 -1.8914026922794307e+01 0
1.2144544716766333e+02 -2.1387613673091156e+01 0
1.1900440581805277e+02 -2.2408878717656165e+01 0
1.1592427543836862e+02 -2.2214803790835813e+01 0
1.1224185654241495e+02 -2.1240942986236821e+01 0
1.0774427434115134e+02 -1.9950260333817486e+01 0
1.0244321285600115e+02 -1.8037129050071353e+01 0
9.5939841988967970e+01 -1.6009902632003445e+01 0
8.7387840628303039e+01 -1.4455415576771161e+01 0
7.5821682739011806e+01 -1.2878848376984820e+01 0
5.9596901273983825e+01 -1.0409338505228211e+01 0
3.4245934258810060e+01 -5.9120306769629085e+00 0
1.7943080565173979e+01 9.7060898787871508e+01 0
1.4119762959931897e+01 7.7191066391097721e+01 0
1.0693709155833981e+01 5.9345631789451801e+01 0
2.5929398922156015e+01 -1.0562845010744828e+00 0
2.5678077775975783e+01 -2.3069137343316246e+00 0
2.5707570656426025e+01 -3.2926806113518143e+00 0
2.6208014083671902e+01 -4.1465608074576839e+00 0
2.7385864773774415e+01 -4.8736883062708101e+00 0
2.9240785129669309e+01 -5.4920652018717933e+00 0
3.1720258997699432e+01 -5.9908943732772997e+00 0
3.4675757323358283e+01 -6.4353663887815458e+00 0
3.7775448786285267e+01 -6.8236726286452170e+00 0
4.0796436108132184e+01 -7.0023595356301707e+00 0
4.3458188885457361e+01 -7.1161771411691230e+00 0
4.5408590191603437e+01 -7.4945668896744344e+00 0
4.6479072982551926e+01 -7.9414334664990305e+00 0
4.6769913418920680e+01 -8.3175996612806138e+00 0
4.6625701271986763e+01 -8.3277162279384367e+00 0

