# vtk DataFile Version 2.0

ASCII

DATASET UNSTRUCTURED_GRID

POINTS 33 double 

-5.00000000000000028e-02  3.33333333349999997e-02  0.00000000000000000e+00
-5.00000000000000028e-02  9.99999999850000182e-02  0.00000000000000000e+00
-5.00000000000000097e-02  1.66666666650000017e-01  0.00000000000000000e+00
-5.00000000000000028e-02  2.33333333350000005e-01  0.00000000000000000e+00
-5.00000000000000028e-02  2.99999999999999989e-01  0.00000000000000000e+00
-5.00000000000000097e-02  3.66666666650000028e-01  0.00000000000000000e+00
-5.00000000000000028e-02  4.33333333350000016e-01  0.00000000000000000e+00
-5.00000000000000028e-02  5.00000000000000000e-01  0.00000000000000000e+00
-5.00000000000000028e-02  5.66666666649999873e-01  0.00000000000000000e+00
-5.00000000000000028e-02  6.33333333349999861e-01  0.00000000000000000e+00
-5.00000000000000028e-02  6.99999999999999845e-01  0.00000000000000000e+00
-5.00000000000000028e-02  7.66666666649999828e-01  0.00000000000000000e+00
-5.00000000000000028e-02  8.33333333349999927e-01  0.00000000000000000e+00
-5.00000000000000028e-02  8.99999999999999800e-01  0.00000000000000000e+00
-5.00000000000000028e-02  9.66666666650000006e-01  0.00000000000000000e+00
-3.33333333349999997e-02  1.00000000000000000e+00  0.00000000000000000e+00
0.00000000000000000e+00  1.00000000000000000e+00  0.00000000000000000e+00
3.33333333349999927e-02  9.99999999999999778e-01  0.00000000000000000e+00
5.00000000000000028e-02  3.33333333349999997e-02  0.00000000000000000e+00
5.00000000000000028e-02  9.99999999850000043e-02  0.00000000000000000e+00
5.00000000000000097e-02  1.66666666650000017e-01  0.00000000000000000e+00
5.00000000000000028e-02  2.33333333350000005e-01  0.00000000000000000e+00
5.00000000000000028e-02  2.99999999999999989e-01  0.00000000000000000e+00
5.00000000000000028e-02  3.66666666650000028e-01  0.00000000000000000e+00
5.00000000000000028e-02  4.33333333350000016e-01  0.00000000000000000e+00
5.00000000000000028e-02  5.00000000000000000e-01  0.00000000000000000e+00
5.00000000000000028e-02  5.66666666649999873e-01  0.00000000000000000e+00
5.00000000000000028e-02  6.33333333349999861e-01  0.00000000000000000e+00
5.00000000000000028e-02  6.99999999999999845e-01  0.00000000000000000e+00
5.00000000000000028e-02  7.66666666649999828e-01  0.00000000000000000e+00
5.00000000000000028e-02  8.33333333349999927e-01  0.00000000000000000e+00
5.00000000000000028e-02  8.99999999999999800e-01  0.00000000000000000e+00
5.00000000000000028e-02  9.66666666649999784e-01  0.00000000000000000e+00

CELLS 0 0


CELL_TYPES 0


POINT_DATA 33

VECTORS VertexNormals double

0.00000000000000000e+00 0.00000000000000000e+00 0
0.00000000000000000e+00 0.00000000000000000e+00 0
0.00000000000000000e+00 0.00000000000000000e+00 0
0.00000000000000000e+00 0.00000000000000000e+00 0
0.00000000000000000e+00 0.00000000000000000e+00 0
0.00000000000000000e+00 0.00000000000000000e+00 0
0.00000000000000000e+00 0.00000000000000000e+00 0
0.00000000000000000e+00 0.00000000000000000e+00 0
0.00000000000000000e+00 0.00000000000000000e+00 0
0.00000000000000000e+00 0.00000000000000000e+00 0
0.00000000000000000e+00 0.00000000000000000e+00 0
0.00000000000000000e+00 0.00000000000000000e+00 0
0.00000000000000000e+00 0.00000000000000000e+00 0
0.00000000000000000e+00 0.00000000000000000e+00 0
0.00000000000000000e+00 0.00000000000000000e+00 0
0.00000000000000000e+00 0.00000000000000000e+00 0
0.00000000000000000e+00 0.00000000000000000e+00 0
0.00000000000000000e+00 0.00000000000000000e+00 0
0.00000000000000000e+00 0.00000000000000000e+00 0
0.00000000000000000e+00 0.00000000000000000e+00 0
0.00000000000000000e+00 0.00000000000000000e+00 0
0.00000000000000000e+00 0.00000000000000000e+00 0
0.00000000000000000e+00 0.00000000000000000e+00 0
0.00000000000000000e+00 0.00000000000000000e+00 0
0.00000000000000000e+00 0.00000000000000000e+00 0
0.00000000000000000e+00 0.00000000000000000e+00 0
0.00000000000000000e+00 0.00000000000000000e+00 0
0.00000000000000000e+00 0.00000000000000000e+00 0
0.00000000000000000e+00 0.00000000000000000e+00 0
0.00000000000000000e+00 0.00000000000000000e+00 0
0.00000000000000000e+00 0.00000000000000000e+00 0
0.00000000000000000e+00 0.00000000000000000e+00 0
0.00000000000000000e+00 0.00000000000000000e+00 0

VECTORS Force double
9.33424381508473289e+00 -7.37871564977123518e-03 0
9.35429784458871438e+00 -3.91751937671467182e-02 0
9.41664550213235607e+00 -5.50690103329139966e-02 0
9.51305598334550773e+00 -4.74260352671551366e-02 0
9.63189227904055656e+00 -9.43461194136889329e-03 0
9.76414415392896018e+00 6.39407680762307251e-02 0
9.90266501127597287e+00 1.78417548815306581e-01 0
1.00408645874683042e+01 3.41731923404827165e-01 0
1.01725239960631093e+01 5.65803287593991899e-01 0
1.02917497187265727e+01 8.70413942914793792e-01 0
1.03904097544396556e+01 1.28767993900734168e+00 0
1.04733640736777449e+01 1.86493237589102145e+00 0
1.07251737438901724e+01 2.66802005447166657e+00 0
1.18291777043618094e+01 3.80080033099475800e+00 0
1.47835930729001710e+01 4.63307717552822496e+00 0
3.65201457062230572e+00 8.01630463513502889e+00 0
3.29106468774355543e+00 6.37940135303774447e+00 0
3.14112679152988861e+00 4.76798094600624012e+00 0
3.51144474303221887e+00 -3.88993758622855094e-03 0
3.47166960575943762e+00 9.66136676371152046e-04 0
3.42652796803713056e+00 3.40254959996779474e-02 0
3.39672119309398246e+00 9.05824380726140549e-02 0
3.39175742278457726e+00 1.65447149530209087e-01 0
3.41740079459195512e+00 2.54783397262782707e-01 0
3.47868205339331071e+00 3.56117447878136040e-01 0
3.58119800385729725e+00 4.68211516202172884e-01 0
3.73288687551837794e+00 5.91028464601407455e-01 0
3.94673719584249838e+00 7.25531997324129985e-01 0
4.24284119395154935e+00 8.74014782128373802e-01 0
4.65949897108521505e+00 1.04364564269684501e+00 0
5.35898468030283048e+00 1.24941035414481516e+00 0
6.90675355789840228e+00 1.47077153791806103e+00 0
1.01359680707613684e+01 2.19391221497173294e+00 0

VECTORS Displacement double
1.27144268274419621e-05 1.89362134910553392e-05 0
6.43268095929867736e-05 5.21969822389730387e-05 0
1.56209400436668614e-04 8.00444792561293378e-05 0
2.81438063762480279e-04 1.03097306865508067e-04 0
4.34217115323798993e-04 1.22306720204077261e-04 0
6.10230578974962825e-04 1.38108227409754994e-04 0
8.04764125855008295e-04 1.50721965053935211e-04 0
1.01376038857248479e-03 1.60840570837097113e-04 0
1.23474999831453113e-03 1.69351789517592022e-04 0
1.46609693912473095e-03 1.76416114332892207e-04 0
1.70566560482264063e-03 1.81663735617951060e-04 0
1.95066110082153105e-03 1.85351665957057506e-04 0
2.19954750237122756e-03 1.88081583147396464e-04 0
2.45143860358498170e-03 1.89836822436687008e-04 0
2.70465650628780394e-03 1.90491161329194296e-04 0
2.83116413824145404e-03 1.27257954788173849e-04 0
2.83111856294718809e-03 7.24482215686961800e-07 0
2.83113998715542239e-03 -1.25760472842565926e-04 0
1.26942998958207528e-05 -1.89672721070337096e-05 0
6.43070549943082807e-05 -5.22349966931639638e-05 0
1.56202760641291089e-04 -8.00652271269740074e-05 0
2.81390432682646617e-04 -1.03084031794043504e-04 0
4.34196861507141424e-04 -1.22263929448535475e-04 0
6.10198018634028078e-04 -1.38017102380720645e-04 0
8.04720845896659772e-04 -1.50553810502705065e-04 0
1.01369537590063072e-03 -1.60557487384325337e-04 0
1.23468302704014322e-03 -1.68930447962314077e-04 0
1.46604441281709703e-03 -1.75843608040168552e-04 0
1.70558342512635523e-03 -1.80898864970686495e-04 0
1.95058823838760009e-03 -1.84412423049237144e-04 0
2.19947766193108896e-03 -1.86972236244754104e-04 0
2.45137882635363021e-03 -1.88519140669889828e-04 0
2.70460796041747508e-03 -1.89019869839963798e-04 0

