# vtk DataFile Version 2.0

ASCII

DATASET UNSTRUCTURED_GRID

POINTS 33 double 

-5.00000000000000028e-02  3.33333333349999997e-02  0.00000000000000000e+00
-5.00000000000000028e-02  9.99999999850000182e-02  0.00000000000000000e+00
-5.00000000000000097e-02  1.66666666650000017e-01  0.00000000000000000e+00
-5.00000000000000028e-02  2.33333333350000005e-01  0.00000000000000000e+00
-5.00000000000000028e-02  2.99999999999999989e-01  0.00000000000000000e+00
-5.00000000000000097e-02  3.66666666650000028e-01  0.00000000000000000e+00
-5.00000000000000028e-02  4.33333333350000016e-01  0.00000000000000000e+00
-5.00000000000000028e-02  5.00000000000000000e-01  0.00000000000000000e+00
-5.00000000000000028e-02  5.66666666649999873e-01  0.00000000000000000e+00
-5.00000000000000028e-02  6.33333333349999861e-01  0.00000000000000000e+00
-5.00000000000000028e-02  6.99999999999999845e-01  0.00000000000000000e+00
-5.00000000000000028e-02  7.66666666649999828e-01  0.00000000000000000e+00
-5.00000000000000028e-02  8.33333333349999927e-01  0.00000000000000000e+00
-5.00000000000000028e-02  8.99999999999999800e-01  0.00000000000000000e+00
-5.00000000000000028e-02  9.66666666650000006e-01  0.00000000000000000e+00
-3.33333333349999997e-02  1.00000000000000000e+00  0.00000000000000000e+00
0.00000000000000000e+00  1.00000000000000000e+00  0.00000000000000000e+00
3.33333333349999927e-02  9.99999999999999778e-01  0.00000000000000000e+00
5.00000000000000028e-02  3.33333333349999997e-02  0.00000000000000000e+00
5.00000000000000028e-02  9.99999999850000043e-02  0.00000000000000000e+00
5.00000000000000097e-02  1.66666666650000017e-01  0.00000000000000000e+00
5.00000000000000028e-02  2.33333333350000005e-01  0.00000000000000000e+00
5.00000000000000028e-02  2.99999999999999989e-01  0.00000000000000000e+00
5.00000000000000028e-02  3.66666666650000028e-01  0.00000000000000000e+00
5.00000000000000028e-02  4.33333333350000016e-01  0.00000000000000000e+00
5.00000000000000028e-02  5.00000000000000000e-01  0.00000000000000000e+00
5.00000000000000028e-02  5.66666666649999873e-01  0.00000000000000000e+00
5.00000000000000028e-02  6.33333333349999861e-01  0.00000000000000000e+00
5.00000000000000028e-02  6.99999999999999845e-01  0.00000000000000000e+00
5.00000000000000028e-02  7.66666666649999828e-01  0.00000000000000000e+00
5.00000000000000028e-02  8.33333333349999927e-01  0.00000000000000000e+00
5.00000000000000028e-02  8.99999999999999800e-01  0.00000000000000000e+00
5.00000000000000028e-02  9.66666666649999784e-01  0.00000000000000000e+00

CELLS 0 0


CELL_TYPES 0


POINT_DATA 33

VECTORS VertexNormals double

0.00000000000000000e+00 0.00000000000000000e+00 0
0.00000000000000000e+00 0.00000000000000000e+00 0
0.00000000000000000e+00 0.00000000000000000e+00 0
0.00000000000000000e+00 0.00000000000000000e+00 0
0.00000000000000000e+00 0.00000000000000000e+00 0
0.00000000000000000e+00 0.00000000000000000e+00 0
0.00000000000000000e+00 0.00000000000000000e+00 0
0.00000000000000000e+00 0.00000000000000000e+00 0
0.00000000000000000e+00 0.00000000000000000e+00 0
0.00000000000000000e+00 0.00000000000000000e+00 0
0.00000000000000000e+00 0.00000000000000000e+00 0
0.00000000000000000e+00 0.00000000000000000e+00 0
0.00000000000000000e+00 0.00000000000000000e+00 0
0.00000000000000000e+00 0.00000000000000000e+00 0
0.00000000000000000e+00 0.00000000000000000e+00 0
0.00000000000000000e+00 0.00000000000000000e+00 0
0.00000000000000000e+00 0.00000000000000000e+00 0
0.00000000000000000e+00 0.00000000000000000e+00 0
0.00000000000000000e+00 0.00000000000000000e+00 0
0.00000000000000000e+00 0.00000000000000000e+00 0
0.00000000000000000e+00 0.00000000000000000e+00 0
0.00000000000000000e+00 0.00000000000000000e+00 0
0.00000000000000000e+00 0.00000000000000000e+00 0
0.00000000000000000e+00 0.00000000000000000e+00 0
0.00000000000000000e+00 0.00000000000000000e+00 0
0.00000000000000000e+00 0.00000000000000000e+00 0
0.00000000000000000e+00 0.00000000000000000e+00 0
0.00000000000000000e+00 0.00000000000000000e+00 0
0.00000000000000000e+00 0.00000000000000000e+00 0
0.00000000000000000e+00 0.00000000000000000e+00 0
0.00000000000000000e+00 0.00000000000000000e+00 0
0.00000000000000000e+00 0.00000000000000000e+00 0
0.00000000000000000e+00 0.00000000000000000e+00 0

VECTORS Force double
9.22659975080833128e+00 -7.31992128424167887e-03 0
9.24707267315437775e+00 -3.91766434207477046e-02 0
9.30966844731651122e+00 -5.52857161778858505e-02 0
9.40605685019662552e+00 -4.77333143514209884e-02 0
9.52483444352241904e+00 -9.62343238234433969e-03 0
9.65712585376759591e+00 6.39156179254044277e-02 0
9.79565368791905300e+00 1.78424914529161732e-01 0
9.93360115383602782e+00 3.41723586856516715e-01 0
1.00648109678317894e+01 5.66018717267546490e-01 0
1.01837408739341875e+01 8.71191484595869148e-01 0
1.02822232696412428e+01 1.28916410260981928e+00 0
1.03647186113643954e+01 1.86737330492982445e+00 0
1.06164609666454393e+01 2.67205662046204040e+00 0
1.17232808647456750e+01 3.80712535913309358e+00 0
1.46841775744303007e+01 4.63915860124037049e+00 0
3.66869494204846891e+00 8.11319562951585027e+00 0
3.30584611739425815e+00 6.47128159954640481e+00 0
3.15495458314886479e+00 4.85387365393771564e+00 0
3.66937885869645575e+00 -3.90711535440085855e-03 0
3.62926577031301756e+00 1.00503220731585404e-03 0
3.58352972888179400e+00 3.44392029838465411e-02 0
3.55311733638366611e+00 9.16366994319410544e-02 0
3.54783788332621608e+00 1.67344406708150734e-01 0
3.57358345096190355e+00 2.57636420450983727e-01 0
3.63535465130167967e+00 3.59901668038053291e-01 0
3.73870919536988566e+00 4.72799459232506325e-01 0
3.89169607550952357e+00 5.96245300887174978e-01 0
4.10748777270423648e+00 7.31200111602673175e-01 0
4.40614024486580114e+00 8.79959375323677295e-01 0
4.82587379453056009e+00 1.04964819643634955e+00 0
5.52967686239136391e+00 1.25515613888494704e+00 0
7.08548936050797806e+00 1.47588468455392174e+00 0
1.03332441691864698e+01 2.20026874129095384e+00 0

VECTORS Displacement double
1.21588719623629785e-05 1.86256270965376364e-05 0
6.26611757529684822e-05 5.22202641443812046e-05 0
1.54509558785083194e-04 8.10963234957568451e-05 0
2.81234807468678236e-04 1.05123369606139222e-04 0
4.36349101491355080e-04 1.24891027828524120e-04 0
6.14775558867020717e-04 1.41344389350238933e-04 0
8.12733991806021371e-04 1.55399665858871452e-04 0
1.02775826426080674e-03 1.67600617591776529e-04 0
1.25784942976331555e-03 1.77939187251261160e-04 0
1.50007864442031937e-03 1.86198619692586357e-04 0
1.75170560523695527e-03 1.92708394886626584e-04 0
2.01085906247666863e-03 1.97672564995151793e-04 0
2.27531592579324326e-03 2.00675363977387766e-04 0
2.54213893242761970e-03 2.01893254323347971e-04 0
2.80920920618301468e-03 2.02164807334529020e-04 0
2.94261094448982274e-03 1.35478622314527729e-04 0
2.94260119668658974e-03 2.05765744655308013e-06 0
2.94259468372482782e-03 -1.31359938789942594e-04 0
1.20404142449222727e-05 -1.84578673581230479e-05 0
6.25159378519214693e-05 -5.16967930024398313e-05 0
1.54430490301846863e-04 -8.01975256520035104e-05 0
2.81127859378296275e-04 -1.03886954412874227e-04 0
4.36259820897076807e-04 -1.23333996844206240e-04 0
6.14681427620883208e-04 -1.39446170591566744e-04 0
8.12634361112508832e-04 -1.53187175557863544e-04 0
1.02769584118726862e-03 -1.65090372798059302e-04 0
1.25777434171265353e-03 -1.75148407419485299e-04 0
1.50000271490809372e-03 -1.83145956903497476e-04 0
1.75163447599420907e-03 -1.89368787332220884e-04 0
2.01079507748603160e-03 -1.94084794456909541e-04 0
2.27527423005529804e-03 -1.96905703082427523e-04 0
2.54211272296706904e-03 -1.97918534342628627e-04 0
2.80918457245010874e-03 -1.98077474701712435e-04 0

