# vtk DataFile Version 2.0

ASCII

DATASET UNSTRUCTURED_GRID

POINTS 33 double 

-5.00000000000000028e-02  3.33333333349999997e-02  0.00000000000000000e+00
-5.00000000000000028e-02  9.99999999850000182e-02  0.00000000000000000e+00
-5.00000000000000097e-02  1.66666666650000017e-01  0.00000000000000000e+00
-5.00000000000000028e-02  2.33333333350000005e-01  0.00000000000000000e+00
-5.00000000000000028e-02  2.99999999999999989e-01  0.00000000000000000e+00
-5.00000000000000097e-02  3.66666666650000028e-01  0.00000000000000000e+00
-5.00000000000000028e-02  4.33333333350000016e-01  0.00000000000000000e+00
-5.00000000000000028e-02  5.00000000000000000e-01  0.00000000000000000e+00
-5.00000000000000028e-02  5.66666666649999873e-01  0.00000000000000000e+00
-5.00000000000000028e-02  6.33333333349999861e-01  0.00000000000000000e+00
-5.00000000000000028e-02  6.99999999999999845e-01  0.00000000000000000e+00
-5.00000000000000028e-02  7.66666666649999828e-01  0.00000000000000000e+00
-5.00000000000000028e-02  8.33333333349999927e-01  0.00000000000000000e+00
-5.00000000000000028e-02  8.99999999999999800e-01  0.00000000000000000e+00
-5.00000000000000028e-02  9.66666666650000006e-01  0.00000000000000000e+00
-3.33333333349999997e-02  1.00000000000000000e+00  0.00000000000000000e+00
0.00000000000000000e+00  1.00000000000000000e+00  0.00000000000000000e+00
3.33333333349999927e-02  9.99999999999999778e-01  0.00000000000000000e+00
5.00000000000000028e-02  3.33333333349999997e-02  0.00000000000000000e+00
5.00000000000000028e-02  9.99999999850000043e-02  0.00000000000000000e+00
5.00000000000000097e-02  1.66666666650000017e-01  0.00000000000000000e+00
5.00000000000000028e-02  2.33333333350000005e-01  0.00000000000000000e+00
5.00000000000000028e-02  2.99999999999999989e-01  0.00000000000000000e+00
5.00000000000000028e-02  3.66666666650000028e-01  0.00000000000000000e+00
5.00000000000000028e-02  4.33333333350000016e-01  0.00000000000000000e+00
5.00000000000000028e-02  5.00000000000000000e-01  0.00000000000000000e+00
5.00000000000000028e-02  5.66666666649999873e-01  0.00000000000000000e+00
5.00000000000000028e-02  6.33333333349999861e-01  0.00000000000000000e+00
5.00000000000000028e-02  6.99999999999999845e-01  0.00000000000000000e+00
5.00000000000000028e-02  7.66666666649999828e-01  0.00000000000000000e+00
5.00000000000000028e-02  8.33333333349999927e-01  0.00000000000000000e+00
5.00000000000000028e-02  8.99999999999999800e-01  0.00000000000000000e+00
5.00000000000000028e-02  9.66666666649999784e-01  0.00000000000000000e+00

CELLS 0 0


CELL_TYPES 0


POINT_DATA 33

VECTORS VertexNormals double

0.00000000000000000e+00 0.00000000000000000e+00 0
0.00000000000000000e+00 0.00000000000000000e+00 0
0.00000000000000000e+00 0.00000000000000000e+00 0
0.00000000000000000e+00 0.00000000000000000e+00 0
0.00000000000000000e+00 0.00000000000000000e+00 0
0.00000000000000000e+00 0.00000000000000000e+00 0
0.00000000000000000e+00 0.00000000000000000e+00 0
0.00000000000000000e+00 0.00000000000000000e+00 0
0.00000000000000000e+00 0.00000000000000000e+00 0
0.00000000000000000e+00 0.00000000000000000e+00 0
0.00000000000000000e+00 0.00000000000000000e+00 0
0.00000000000000000e+00 0.00000000000000000e+00 0
0.00000000000000000e+00 0.00000000000000000e+00 0
0.00000000000000000e+00 0.00000000000000000e+00 0
0.00000000000000000e+00 0.00000000000000000e+00 0
0.00000000000000000e+00 0.00000000000000000e+00 0
0.00000000000000000e+00 0.00000000000000000e+00 0
0.00000000000000000e+00 0.00000000000000000e+00 0
0.00000000000000000e+00 0.00000000000000000e+00 0
0.00000000000000000e+00 0.00000000000000000e+00 0
0.00000000000000000e+00 0.00000000000000000e+00 0
0.00000000000000000e+00 0.00000000000000000e+00 0
0.00000000000000000e+00 0.00000000000000000e+00 0
0.00000000000000000e+00 0.00000000000000000e+00 0
0.00000000000000000e+00 0.00000000000000000e+00 0
0.00000000000000000e+00 0.00000000000000000e+00 0
0.00000000000000000e+00 0.00000000000000000e+00 0
0.00000000000000000e+00 0.00000000000000000e+00 0
0.00000000000000000e+00 0.00000000000000000e+00 0
0.00000000000000000e+00 0.00000000000000000e+00 0
0.00000000000000000e+00 0.00000000000000000e+00 0
0.00000000000000000e+00 0.00000000000000000e+00 0
0.00000000000000000e+00 0.00000000000000000e+00 0

VECTORS Force double
9.34186057247335810e+00 -6.21677433676602262e-03 0
9.36177040666014015e+00 -3.66670467938831277e-02 0
9.42412782683610573e+00 -5.17835607279460153e-02 0
9.52066024031139868e+00 -4.36646388752398307e-02 0
9.63986051403483124e+00 -5.52942614680100239e-03 0
9.77252641144986711e+00 6.75681131856589040e-02 0
9.91112156084631657e+00 1.81476852401664723e-01 0
1.00490100897890020e+01 3.44370647181502010e-01 0
1.01804056953763755e+01 5.68392494889722655e-01 0
1.02997737613898082e+01 8.73153471187645747e-01 0
1.03988670308403233e+01 1.29044160190754220e+00 0
1.04820853201005892e+01 1.86747946327341574e+00 0
1.07336474503798183e+01 2.67036009134318109e+00 0
1.18369231303598195e+01 3.80346855350783208e+00 0
1.47913573401023406e+01 4.63677187051302209e+00 0
3.64717248167108821e+00 8.00640272732240810e+00 0
3.28781749711772076e+00 6.37241211284089104e+00 0
3.13982996791998792e+00 4.76318134500546275e+00 0
3.49911604104109175e+00 -3.80746863994332104e-03 0
3.45890445125220358e+00 1.59785293305876337e-03 0
3.41355033740247338e+00 3.49870398773894711e-02 0
3.38373087248177651e+00 9.16923030737620964e-02 0
3.37898544115375055e+00 1.66596880519703783e-01 0
3.40488899109061371e+00 2.55937312544236906e-01 0
3.46620975464914105e+00 3.57238315800733175e-01 0
3.56858143126486382e+00 4.69266167382288379e-01 0
3.72022767172245183e+00 5.92039296984709251e-01 0
3.93428077682490684e+00 7.26615493677002178e-01 0
4.23068088356851746e+00 8.75353465745496107e-01 0
4.64742305140818335e+00 1.04541490004872539e+00 0
5.34664403757657869e+00 1.25177313091998266e+00 0
6.89388329032605274e+00 1.47384222556073996e+00 0
1.01205501334292851e+01 2.19683775121379954e+00 0

VECTORS Displacement double
9.07236361680632613e-06 1.43842871149458708e-05 0
4.84070200272916054e-05 4.09509914613328526e-05 0
1.21198447325520417e-04 6.42683017428659115e-05 0
2.22823532163542593e-04 8.45497174325820990e-05 0
3.49727903079814903e-04 1.02570647597209787e-04 0
4.99361448994818896e-04 1.18702472581839401e-04 0
6.69626172911614160e-04 1.32697186968065820e-04 0
8.57022686357396409e-04 1.43861533108097933e-04 0
1.05719774245309462e-03 1.52060604839850626e-04 0
1.26630998767869184e-03 1.57781753817738820e-04 0
1.48125010235490486e-03 1.61518387508394006e-04 0
1.69988559167484404e-03 1.64005251186809036e-04 0
1.92117163689163291e-03 1.65601233404235855e-04 0
2.14390192408779557e-03 1.66262124992719952e-04 0
2.36673369389337569e-03 1.66400244603774687e-04 0
2.47800038638732855e-03 1.10761031774651045e-04 0
2.47797301693344039e-03 -5.56630263115496307e-07 0
2.47797709368533610e-03 -1.11877207603391143e-04 0
9.13815725178431361e-06 -1.45104974577429807e-05 0
4.84578111294990037e-05 -4.13292406802714452e-05 0
1.21238764104249024e-04 -6.48754209107487649e-05 0
2.22857041763471775e-04 -8.53828661671541991e-05 0
3.49728790535326162e-04 -1.03571183396655828e-04 0
4.99368021007105378e-04 -1.19855285377576195e-04 0
6.69607628161574529e-04 -1.33984815095537638e-04 0
8.57022011969919557e-04 -1.45216336628640477e-04 0
1.05715280859593284e-03 -1.53413125254166932e-04 0
1.26624721424445927e-03 -1.59145624161943940e-04 0
1.48121513581742667e-03 -1.62879104601141439e-04 0
1.69983428813839151e-03 -1.65340233308174279e-04 0
1.92113498290134746e-03 -1.66910239670451223e-04 0
2.14385659439146397e-03 -1.67508025268316759e-04 0
2.36666944793853268e-03 -1.67553581268099788e-04 0

