# vtk DataFile Version 2.0

ASCII

DATASET UNSTRUCTURED_GRID

POINTS 33 float 

-5.0000000000000003e-02  3.3333333335000000e-02  0.0000000000000000e+00
-5.0000000000000003e-02  9.9999999985000018e-02  0.0000000000000000e+00
-5.0000000000000003e-02  1.6666666665000002e-01  0.0000000000000000e+00
-5.0000000000000003e-02  2.3333333334999998e-01  0.0000000000000000e+00
-5.0000000000000003e-02  2.9999999999999993e-01  0.0000000000000000e+00
-5.0000000000000003e-02  3.6666666665000003e-01  0.0000000000000000e+00
-5.0000000000000003e-02  4.3333333335000002e-01  0.0000000000000000e+00
-5.0000000000000003e-02  5.0000000000000000e-01  0.0000000000000000e+00
-5.0000000000000003e-02  5.6666666664999987e-01  0.0000000000000000e+00
-5.0000000000000003e-02  6.3333333334999986e-01  0.0000000000000000e+00
-5.0000000000000003e-02  6.9999999999999984e-01  0.0000000000000000e+00
-5.0000000000000003e-02  7.6666666664999994e-01  0.0000000000000000e+00
-4.9999999999999996e-02  8.3333333334999982e-01  0.0000000000000000e+00
-5.0000000000000003e-02  8.9999999999999991e-01  0.0000000000000000e+00
-5.0000000000000003e-02  9.6666666664999990e-01  0.0000000000000000e+00
-3.3333333335000000e-02  9.9999999999999978e-01  0.0000000000000000e+00
0.0000000000000000e+00  1.0000000000000000e+00  0.0000000000000000e+00
3.3333333335000007e-02  1.0000000000000000e+00  0.0000000000000000e+00
5.0000000000000003e-02  3.3333333335000000e-02  0.0000000000000000e+00
5.0000000000000003e-02  9.9999999985000004e-02  0.0000000000000000e+00
5.0000000000000003e-02  1.6666666664999999e-01  0.0000000000000000e+00
5.0000000000000003e-02  2.3333333334999998e-01  0.0000000000000000e+00
5.0000000000000003e-02  2.9999999999999993e-01  0.0000000000000000e+00
5.0000000000000003e-02  3.6666666665000003e-01  0.0000000000000000e+00
5.0000000000000003e-02  4.3333333334999991e-01  0.0000000000000000e+00
5.0000000000000003e-02  5.0000000000000000e-01  0.0000000000000000e+00
5.0000000000000003e-02  5.6666666664999987e-01  0.0000000000000000e+00
5.0000000000000003e-02  6.3333333334999997e-01  0.0000000000000000e+00
5.0000000000000003e-02  6.9999999999999984e-01  0.0000000000000000e+00
5.0000000000000003e-02  7.6666666664999994e-01  0.0000000000000000e+00
5.0000000000000003e-02  8.3333333334999993e-01  0.0000000000000000e+00
5.0000000000000010e-02  8.9999999999999991e-01  0.0000000000000000e+00
5.0000000000000003e-02  9.6666666664999990e-01  0.0000000000000000e+00

CELLS 0 0


CELL_TYPES 0


POINT_DATA 33

VECTORS VertexNormals float

0.0000000000000000e+00 0.0000000000000000e+00 0
0.0000000000000000e+00 0.0000000000000000e+00 0
0.0000000000000000e+00 0.0000000000000000e+00 0
0.0000000000000000e+00 0.0000000000000000e+00 0
0.0000000000000000e+00 0.0000000000000000e+00 0
0.0000000000000000e+00 0.0000000000000000e+00 0
0.0000000000000000e+00 0.0000000000000000e+00 0
0.0000000000000000e+00 0.0000000000000000e+00 0
0.0000000000000000e+00 0.0000000000000000e+00 0
0.0000000000000000e+00 0.0000000000000000e+00 0
0.0000000000000000e+00 0.0000000000000000e+00 0
0.0000000000000000e+00 0.0000000000000000e+00 0
0.0000000000000000e+00 0.0000000000000000e+00 0
0.0000000000000000e+00 0.0000000000000000e+00 0
0.0000000000000000e+00 0.0000000000000000e+00 0
0.0000000000000000e+00 0.0000000000000000e+00 0
0.0000000000000000e+00 0.0000000000000000e+00 0
0.0000000000000000e+00 0.0000000000000000e+00 0
0.0000000000000000e+00 0.0000000000000000e+00 0
0.0000000000000000e+00 0.0000000000000000e+00 0
0.0000000000000000e+00 0.0000000000000000e+00 0
0.0000000000000000e+00 0.0000000000000000e+00 0
0.0000000000000000e+00 0.0000000000000000e+00 0
0.0000000000000000e+00 0.0000000000000000e+00 0
0.0000000000000000e+00 0.0000000000000000e+00 0
0.0000000000000000e+00 0.0000000000000000e+00 0
0.0000000000000000e+00 0.0000000000000000e+00 0
0.0000000000000000e+00 0.0000000000000000e+00 0
0.0000000000000000e+00 0.0000000000000000e+00 0
0.0000000000000000e+00 0.0000000000000000e+00 0
0.0000000000000000e+00 0.0000000000000000e+00 0
0.0000000000000000e+00 0.0000000000000000e+00 0
0.0000000000000000e+00 0.0000000000000000e+00 0

VECTORS Stress float
1.2061771453417441e+02 -1.9908325843356165e+00 0
1.2053202894208029e+02 -3.1628493195813978e+00 0
1.2006340672536446e+02 -3.3903349990017930e+00 0
1.1921796873117910e+02 -3.0137604179682205e+00 0
1.1800788941010173e+02 -1.5269604575688940e+00 0
1.1646193655530026e+02 1.9910173653889882e-01 0
1.1448041177381235e+02 7.6638807878755255e-01 0
1.1184198556587977e+02 5.6675806158326847e-01 0
1.0835407655601739e+02 3.2114655816492810e-01 0
1.0380486052056733e+02 2.8546773640181000e-01 0
9.7738429809596710e+01 4.1929171731649328e-01 0
8.9208420877060462e+01 5.4083436809193042e-01 0
7.6389318622606083e+01 6.2289280562101434e-01 0
5.4981779803890525e+01 6.0730310509623575e-01 0
1.2130307307286794e+01 4.8917840908189897e-01 0
-8.0389863151824303e-01 2.7748889875812444e+02 0
-8.8956518648128413e-01 2.5162790778155258e+02 0
-8.1199535586696492e-01 1.9660008361888362e+02 0
9.7850862081641708e+01 -1.6021977807352252e+00 0
9.8335886678908722e+01 -2.6235542498156699e+00 0
9.9380864295163946e+01 -2.8067132174450258e+00 0
1.0123740909179554e+02 -2.5313915241028404e+00 0
1.0395743254180788e+02 -1.3175946447786673e+00 0
1.0770988930128344e+02 1.8305963970003528e-01 0
1.1273383573887534e+02 7.4955425088426830e-01 0
1.1931235970132681e+02 5.9204453910757504e-01 0
1.2783162295806100e+02 3.4485987874067381e-01 0
1.3861328167026127e+02 3.1630124112227426e-01 0
1.5132258610133900e+02 5.4732624124127449e-01 0
1.6417620304868205e+02 8.2247066241719069e-01 0
1.7366115311714924e+02 1.0343130567431889e+00 0
1.7582151895558385e+02 1.0737935716328786e+00 0
1.6751631305814689e+02 1.0801450168397646e+00 0

