# vtk DataFile Version 2.0

ASCII

DATASET UNSTRUCTURED_GRID

POINTS 33 double 

-5.00000000000000028e-02  3.33333333349999997e-02  0.00000000000000000e+00
-5.00000000000000028e-02  9.99999999850000182e-02  0.00000000000000000e+00
-5.00000000000000097e-02  1.66666666650000017e-01  0.00000000000000000e+00
-5.00000000000000028e-02  2.33333333350000005e-01  0.00000000000000000e+00
-5.00000000000000028e-02  2.99999999999999989e-01  0.00000000000000000e+00
-5.00000000000000097e-02  3.66666666650000028e-01  0.00000000000000000e+00
-5.00000000000000028e-02  4.33333333350000016e-01  0.00000000000000000e+00
-5.00000000000000028e-02  5.00000000000000000e-01  0.00000000000000000e+00
-5.00000000000000028e-02  5.66666666649999873e-01  0.00000000000000000e+00
-5.00000000000000028e-02  6.33333333349999861e-01  0.00000000000000000e+00
-5.00000000000000028e-02  6.99999999999999845e-01  0.00000000000000000e+00
-5.00000000000000028e-02  7.66666666649999828e-01  0.00000000000000000e+00
-5.00000000000000028e-02  8.33333333349999927e-01  0.00000000000000000e+00
-5.00000000000000028e-02  8.99999999999999800e-01  0.00000000000000000e+00
-5.00000000000000028e-02  9.66666666650000006e-01  0.00000000000000000e+00
-3.33333333349999997e-02  1.00000000000000000e+00  0.00000000000000000e+00
0.00000000000000000e+00  1.00000000000000000e+00  0.00000000000000000e+00
3.33333333349999927e-02  9.99999999999999778e-01  0.00000000000000000e+00
5.00000000000000028e-02  3.33333333349999997e-02  0.00000000000000000e+00
5.00000000000000028e-02  9.99999999850000043e-02  0.00000000000000000e+00
5.00000000000000097e-02  1.66666666650000017e-01  0.00000000000000000e+00
5.00000000000000028e-02  2.33333333350000005e-01  0.00000000000000000e+00
5.00000000000000028e-02  2.99999999999999989e-01  0.00000000000000000e+00
5.00000000000000028e-02  3.66666666650000028e-01  0.00000000000000000e+00
5.00000000000000028e-02  4.33333333350000016e-01  0.00000000000000000e+00
5.00000000000000028e-02  5.00000000000000000e-01  0.00000000000000000e+00
5.00000000000000028e-02  5.66666666649999873e-01  0.00000000000000000e+00
5.00000000000000028e-02  6.33333333349999861e-01  0.00000000000000000e+00
5.00000000000000028e-02  6.99999999999999845e-01  0.00000000000000000e+00
5.00000000000000028e-02  7.66666666649999828e-01  0.00000000000000000e+00
5.00000000000000028e-02  8.33333333349999927e-01  0.00000000000000000e+00
5.00000000000000028e-02  8.99999999999999800e-01  0.00000000000000000e+00
5.00000000000000028e-02  9.66666666649999784e-01  0.00000000000000000e+00

CELLS 0 0


CELL_TYPES 0


POINT_DATA 33

VECTORS VertexNormals double

0.00000000000000000e+00 0.00000000000000000e+00 0
0.00000000000000000e+00 0.00000000000000000e+00 0
0.00000000000000000e+00 0.00000000000000000e+00 0
0.00000000000000000e+00 0.00000000000000000e+00 0
0.00000000000000000e+00 0.00000000000000000e+00 0
0.00000000000000000e+00 0.00000000000000000e+00 0
0.00000000000000000e+00 0.00000000000000000e+00 0
0.00000000000000000e+00 0.00000000000000000e+00 0
0.00000000000000000e+00 0.00000000000000000e+00 0
0.00000000000000000e+00 0.00000000000000000e+00 0
0.00000000000000000e+00 0.00000000000000000e+00 0
0.00000000000000000e+00 0.00000000000000000e+00 0
0.00000000000000000e+00 0.00000000000000000e+00 0
0.00000000000000000e+00 0.00000000000000000e+00 0
0.00000000000000000e+00 0.00000000000000000e+00 0
0.00000000000000000e+00 0.00000000000000000e+00 0
0.00000000000000000e+00 0.00000000000000000e+00 0
0.00000000000000000e+00 0.00000000000000000e+00 0
0.00000000000000000e+00 0.00000000000000000e+00 0
0.00000000000000000e+00 0.00000000000000000e+00 0
0.00000000000000000e+00 0.00000000000000000e+00 0
0.00000000000000000e+00 0.00000000000000000e+00 0
0.00000000000000000e+00 0.00000000000000000e+00 0
0.00000000000000000e+00 0.00000000000000000e+00 0
0.00000000000000000e+00 0.00000000000000000e+00 0
0.00000000000000000e+00 0.00000000000000000e+00 0
0.00000000000000000e+00 0.00000000000000000e+00 0
0.00000000000000000e+00 0.00000000000000000e+00 0
0.00000000000000000e+00 0.00000000000000000e+00 0
0.00000000000000000e+00 0.00000000000000000e+00 0
0.00000000000000000e+00 0.00000000000000000e+00 0
0.00000000000000000e+00 0.00000000000000000e+00 0
0.00000000000000000e+00 0.00000000000000000e+00 0

VECTORS Force double
8.60970875045749651e+00 -5.12417007304520004e-03 0
8.63066463882641166e+00 -3.32971814592587234e-02 0
8.69436603842176225e+00 -4.63134709769202624e-02 0
8.79230129999680443e+00 -3.60285262348275723e-02 0
8.91283375508552922e+00 4.68415226816163398e-03 0
9.04697044393056693e+00 8.09371764434439339e-02 0
9.18738990979434966e+00 1.98503816915695824e-01 0
9.32725066974003703e+00 3.65353144513184902e-01 0
9.46013605951501901e+00 5.93780481603095822e-01 0
9.58003574291292814e+00 9.04042773133926669e-01 0
9.67843899611625780e+00 1.32883178578874839e+00 0
9.75978749447094529e+00 1.91656524422784580e+00 0
1.00117712377885280e+01 2.73446605619070748e+00 0
1.11315969990835413e+01 3.89017836303818365e+00 0
1.41320050007640781e+01 4.73613409726114920e+00 0
3.73034966798685508e+00 8.67511954161347631e+00 0
3.36823096178735115e+00 7.01864683103499409e+00 0
3.22710196309890929e+00 5.37649753255884200e+00 0
4.50118016367412110e+00 -3.83939112536718814e-03 0
4.45281400918410775e+00 3.29256936975209739e-03 0
4.39742476103938174e+00 4.42791651011975249e-02 0
4.36061466093962036e+00 1.13201161695705405e-01 0
4.35414209728415891e+00 2.02971618168725360e-01 0
4.38462529074784513e+00 3.07918092176332092e-01 0
4.45708138102006224e+00 4.23929622221298374e-01 0
4.57647371107515077e+00 5.48474724972560113e-01 0
4.74974008022446359e+00 6.80603254415744763e-01 0
4.98876668130642376e+00 8.20769195923666151e-01 0
5.31263947391720226e+00 9.71185044802331476e-01 0
5.75932210959443491e+00 1.13942115253760701e+00 0
6.49487974745009833e+00 1.34130699608560655e+00 0
8.10025209444127192e+00 1.55678862602200874e+00 0
1.14303049332131241e+01 2.28274559016672285e+00 0

VECTORS Displacement double
4.95383832669248693e-06 7.57068425206136271e-06 0
2.51252951588521671e-05 2.11508167899304460e-05 0
6.17230540687748667e-05 3.28233037348838635e-05 0
1.11992030181649383e-04 4.24309231425514405e-05 0
1.73170552979492245e-04 5.03363941842223866e-05 0
2.43414978882121368e-04 5.72108825507216273e-05 0
3.21776947076178621e-04 6.34440267565523344e-05 0
4.07701995102721149e-04 6.94617473791588503e-05 0
5.01474219846096856e-04 7.54373668274111283e-05 0
6.02984646354026710e-04 8.09278902228545725e-05 0
7.11263306985234931e-04 8.53728511386694949e-05 0
8.24380869156884585e-04 8.82253254914277456e-05 0
9.39765029418313555e-04 8.96599571227861005e-05 0
1.05624799617826375e-03 9.05716737631423756e-05 0
1.17362219389806040e-03 9.10881758086986735e-05 0
1.23229884337965187e-03 6.17878616647097136e-05 0
1.23226991903162796e-03 3.08091234553220245e-06 0
1.23229746113192543e-03 -5.55848455634043646e-05 0
4.77301970489617207e-06 -7.25524370701358964e-06 0
2.49078999334743364e-05 -2.02166701184969688e-05 0
6.15208711954561558e-05 -3.12505610766456281e-05 0
1.11795769939551740e-04 -4.02421570282934769e-05 0
1.72989678337560215e-04 -4.75625047560321066e-05 0
2.43245063430940980e-04 -5.38727520401999590e-05 0
3.21613399375639112e-04 -5.95897809410453732e-05 0
4.07555485041576873e-04 -6.51359576892272026e-05 0
5.01347705504410178e-04 -7.06880795259872069e-05 0
6.02883510734677011e-04 -7.58159181074158898e-05 0
7.11176039077484733e-04 -7.99369051919522524e-05 0
8.24307719320602791e-04 -8.25336260856001974e-05 0
9.39723199051694454e-04 -8.37969698560867530e-05 0
1.05621869911045924e-03 -8.45406112133315616e-05 0
1.17358761956653460e-03 -8.49240738107941623e-05 0

