# vtk DataFile Version 2.0

ASCII

DATASET UNSTRUCTURED_GRID

POINTS 157 double 

-5.00000000000000028e-02  0.00000000000000000e+00  0.00000000000000000e+00
-5.00000000000000028e-02  5.55555555555555525e-02  0.00000000000000000e+00
-5.00000000000000028e-02  9.59295359144507823e-03  0.00000000000000000e+00
-5.00000000000000028e-02  2.77777777777777762e-02  0.00000000000000000e+00
-5.00000000000000028e-02  4.59626019641104708e-02  0.00000000000000000e+00
4.99999999999999958e-02  0.00000000000000000e+00  0.00000000000000000e+00
4.99999999999999958e-02  5.55555555555555525e-02  0.00000000000000000e+00
4.99999999999999958e-02  9.59295359144507823e-03  0.00000000000000000e+00
4.99999999999999958e-02  2.77777777777777762e-02  0.00000000000000000e+00
4.99999999999999958e-02  4.59626019641104708e-02  0.00000000000000000e+00
-5.00000000000000028e-02  1.11111111111111105e-01  0.00000000000000000e+00
-5.00000000000000028e-02  6.51485091470006272e-02  0.00000000000000000e+00
-5.00000000000000028e-02  8.33333333333333287e-02  0.00000000000000000e+00
-5.00000000000000028e-02  1.01518157519666030e-01  0.00000000000000000e+00
4.99999999999999958e-02  1.11111111111111105e-01  0.00000000000000000e+00
4.99999999999999958e-02  6.51485091470006272e-02  0.00000000000000000e+00
4.99999999999999958e-02  8.33333333333333287e-02  0.00000000000000000e+00
4.99999999999999958e-02  1.01518157519666030e-01  0.00000000000000000e+00
-5.00000000000000028e-02  1.66666666666666657e-01  0.00000000000000000e+00
-5.00000000000000028e-02  1.20704064702556180e-01  0.00000000000000000e+00
-5.00000000000000028e-02  1.38888888888888895e-01  0.00000000000000000e+00
-5.00000000000000028e-02  1.57073713075221583e-01  0.00000000000000000e+00
4.99999999999999958e-02  1.66666666666666657e-01  0.00000000000000000e+00
4.99999999999999958e-02  1.20704064702556180e-01  0.00000000000000000e+00
4.99999999999999958e-02  1.38888888888888895e-01  0.00000000000000000e+00
4.99999999999999958e-02  1.57073713075221583e-01  0.00000000000000000e+00
-5.00000000000000028e-02  2.22222222222222210e-01  0.00000000000000000e+00
-5.00000000000000028e-02  1.76259620258111732e-01  0.00000000000000000e+00
-5.00000000000000028e-02  1.94444444444444420e-01  0.00000000000000000e+00
-5.00000000000000028e-02  2.12629268630777135e-01  0.00000000000000000e+00
4.99999999999999958e-02  2.22222222222222210e-01  0.00000000000000000e+00
4.99999999999999958e-02  1.76259620258111732e-01  0.00000000000000000e+00
4.99999999999999958e-02  1.94444444444444420e-01  0.00000000000000000e+00
4.99999999999999958e-02  2.12629268630777135e-01  0.00000000000000000e+00
-5.00000000000000028e-02  2.77777777777777790e-01  0.00000000000000000e+00
-5.00000000000000028e-02  2.31815175813667285e-01  0.00000000000000000e+00
-5.00000000000000028e-02  2.50000000000000000e-01  0.00000000000000000e+00
-5.00000000000000028e-02  2.68184824186332715e-01  0.00000000000000000e+00
4.99999999999999958e-02  2.77777777777777790e-01  0.00000000000000000e+00
4.99999999999999958e-02  2.31815175813667285e-01  0.00000000000000000e+00
4.99999999999999958e-02  2.50000000000000000e-01  0.00000000000000000e+00
4.99999999999999958e-02  2.68184824186332715e-01  0.00000000000000000e+00
-5.00000000000000028e-02  3.33333333333333315e-01  0.00000000000000000e+00
-5.00000000000000028e-02  2.87370731369222865e-01  0.00000000000000000e+00
-5.00000000000000028e-02  3.05555555555555580e-01  0.00000000000000000e+00
-5.00000000000000028e-02  3.23740379741888240e-01  0.00000000000000000e+00
4.99999999999999958e-02  3.33333333333333315e-01  0.00000000000000000e+00
4.99999999999999958e-02  2.87370731369222865e-01  0.00000000000000000e+00
4.99999999999999958e-02  3.05555555555555580e-01  0.00000000000000000e+00
4.99999999999999958e-02  3.23740379741888240e-01  0.00000000000000000e+00
-5.00000000000000028e-02  3.88888888888888840e-01  0.00000000000000000e+00
-5.00000000000000028e-02  3.42926286924778334e-01  0.00000000000000000e+00
-5.00000000000000028e-02  3.61111111111111049e-01  0.00000000000000000e+00
-5.00000000000000028e-02  3.79295935297443765e-01  0.00000000000000000e+00
4.99999999999999958e-02  3.88888888888888840e-01  0.00000000000000000e+00
4.99999999999999958e-02  3.42926286924778334e-01  0.00000000000000000e+00
4.99999999999999958e-02  3.61111111111111049e-01  0.00000000000000000e+00
4.99999999999999958e-02  3.79295935297443765e-01  0.00000000000000000e+00
-5.00000000000000028e-02  4.44444444444444420e-01  0.00000000000000000e+00
-5.00000000000000028e-02  3.98481842480333914e-01  0.00000000000000000e+00
-5.00000000000000028e-02  4.16666666666666630e-01  0.00000000000000000e+00
-5.00000000000000028e-02  4.34851490852999345e-01  0.00000000000000000e+00
4.99999999999999958e-02  4.44444444444444420e-01  0.00000000000000000e+00
4.99999999999999958e-02  3.98481842480333914e-01  0.00000000000000000e+00
4.99999999999999958e-02  4.16666666666666630e-01  0.00000000000000000e+00
4.99999999999999958e-02  4.34851490852999345e-01  0.00000000000000000e+00
-5.00000000000000028e-02  5.00000000000000000e-01  0.00000000000000000e+00
-5.00000000000000028e-02  4.54037398035889495e-01  0.00000000000000000e+00
-5.00000000000000028e-02  4.72222222222222210e-01  0.00000000000000000e+00
-5.00000000000000028e-02  4.90407046408554925e-01  0.00000000000000000e+00
4.99999999999999958e-02  5.00000000000000000e-01  0.00000000000000000e+00
4.99999999999999958e-02  4.54037398035889495e-01  0.00000000000000000e+00
4.99999999999999958e-02  4.72222222222222210e-01  0.00000000000000000e+00
4.99999999999999958e-02  4.90407046408554925e-01  0.00000000000000000e+00
-5.00000000000000028e-02  5.55555555555555580e-01  0.00000000000000000e+00
-5.00000000000000028e-02  5.09592953591445075e-01  0.00000000000000000e+00
-5.00000000000000028e-02  5.27777777777777790e-01  0.00000000000000000e+00
-5.00000000000000028e-02  5.45962601964110505e-01  0.00000000000000000e+00
4.99999999999999958e-02  5.55555555555555580e-01  0.00000000000000000e+00
4.99999999999999958e-02  5.09592953591445075e-01  0.00000000000000000e+00
4.99999999999999958e-02  5.27777777777777790e-01  0.00000000000000000e+00
4.99999999999999958e-02  5.45962601964110505e-01  0.00000000000000000e+00
-5.00000000000000028e-02  6.11111111111111049e-01  0.00000000000000000e+00
-5.00000000000000028e-02  5.65148509147000655e-01  0.00000000000000000e+00
-5.00000000000000028e-02  5.83333333333333259e-01  0.00000000000000000e+00
-5.00000000000000028e-02  6.01518157519665975e-01  0.00000000000000000e+00
4.99999999999999958e-02  6.11111111111111049e-01  0.00000000000000000e+00
4.99999999999999958e-02  5.65148509147000655e-01  0.00000000000000000e+00
4.99999999999999958e-02  5.83333333333333259e-01  0.00000000000000000e+00
4.99999999999999958e-02  6.01518157519665975e-01  0.00000000000000000e+00
-5.00000000000000028e-02  6.66666666666666630e-01  0.00000000000000000e+00
-5.00000000000000028e-02  6.20704064702556013e-01  0.00000000000000000e+00
-5.00000000000000028e-02  6.38888888888888840e-01  0.00000000000000000e+00
-5.00000000000000028e-02  6.57073713075221555e-01  0.00000000000000000e+00
4.99999999999999958e-02  6.66666666666666630e-01  0.00000000000000000e+00
4.99999999999999958e-02  6.20704064702556013e-01  0.00000000000000000e+00
4.99999999999999958e-02  6.38888888888888840e-01  0.00000000000000000e+00
4.99999999999999958e-02  6.57073713075221555e-01  0.00000000000000000e+00
-5.00000000000000028e-02  7.22222222222222210e-01  0.00000000000000000e+00
-5.00000000000000028e-02  6.76259620258111704e-01  0.00000000000000000e+00
-5.00000000000000028e-02  6.94444444444444420e-01  0.00000000000000000e+00
-5.00000000000000028e-02  7.12629268630777135e-01  0.00000000000000000e+00
4.99999999999999958e-02  7.22222222222222210e-01  0.00000000000000000e+00
4.99999999999999958e-02  6.76259620258111704e-01  0.00000000000000000e+00
4.99999999999999958e-02  6.94444444444444420e-01  0.00000000000000000e+00
4.99999999999999958e-02  7.12629268630777135e-01  0.00000000000000000e+00
-5.00000000000000028e-02  7.77777777777777679e-01  0.00000000000000000e+00
-5.00000000000000028e-02  7.31815175813667174e-01  0.00000000000000000e+00
-5.00000000000000028e-02  7.50000000000000000e-01  0.00000000000000000e+00
-5.00000000000000028e-02  7.68184824186332604e-01  0.00000000000000000e+00
4.99999999999999958e-02  7.77777777777777679e-01  0.00000000000000000e+00
4.99999999999999958e-02  7.31815175813667174e-01  0.00000000000000000e+00
4.99999999999999958e-02  7.50000000000000000e-01  0.00000000000000000e+00
4.99999999999999958e-02  7.68184824186332604e-01  0.00000000000000000e+00
-5.00000000000000028e-02  8.33333333333333259e-01  0.00000000000000000e+00
-5.00000000000000028e-02  7.87370731369222754e-01  0.00000000000000000e+00
-5.00000000000000028e-02  8.05555555555555469e-01  0.00000000000000000e+00
-5.00000000000000028e-02  8.23740379741888185e-01  0.00000000000000000e+00
4.99999999999999958e-02  8.33333333333333259e-01  0.00000000000000000e+00
4.99999999999999958e-02  7.87370731369222754e-01  0.00000000000000000e+00
4.99999999999999958e-02  8.05555555555555469e-01  0.00000000000000000e+00
4.99999999999999958e-02  8.23740379741888185e-01  0.00000000000000000e+00
-5.00000000000000028e-02  8.88888888888888840e-01  0.00000000000000000e+00
-5.00000000000000028e-02  8.42926286924778334e-01  0.00000000000000000e+00
-5.00000000000000028e-02  8.61111111111111049e-01  0.00000000000000000e+00
-5.00000000000000028e-02  8.79295935297443765e-01  0.00000000000000000e+00
4.99999999999999958e-02  8.88888888888888840e-01  0.00000000000000000e+00
4.99999999999999958e-02  8.42926286924778334e-01  0.00000000000000000e+00
4.99999999999999958e-02  8.61111111111111049e-01  0.00000000000000000e+00
4.99999999999999958e-02  8.79295935297443765e-01  0.00000000000000000e+00
-5.00000000000000028e-02  9.44444444444444420e-01  0.00000000000000000e+00
-5.00000000000000028e-02  8.98481842480333914e-01  0.00000000000000000e+00
-5.00000000000000028e-02  9.16666666666666630e-01  0.00000000000000000e+00
-5.00000000000000028e-02  9.34851490852999345e-01  0.00000000000000000e+00
4.99999999999999958e-02  9.44444444444444420e-01  0.00000000000000000e+00
4.99999999999999958e-02  8.98481842480333914e-01  0.00000000000000000e+00
4.99999999999999958e-02  9.16666666666666630e-01  0.00000000000000000e+00
4.99999999999999958e-02  9.34851490852999345e-01  0.00000000000000000e+00
-5.00000000000000028e-02  1.00000000000000000e+00  0.00000000000000000e+00
-1.66666666666666699e-02  1.00000000000000000e+00  0.00000000000000000e+00
-5.00000000000000028e-02  9.54037398035889495e-01  0.00000000000000000e+00
-5.00000000000000028e-02  9.72222222222222210e-01  0.00000000000000000e+00
-5.00000000000000028e-02  9.90407046408554925e-01  0.00000000000000000e+00
-4.42442278451329538e-02  1.00000000000000000e+00  0.00000000000000000e+00
-3.33333333333333398e-02  1.00000000000000000e+00  0.00000000000000000e+00
-2.24224388215337189e-02  1.00000000000000000e+00  0.00000000000000000e+00
1.66666666666666630e-02  1.00000000000000000e+00  0.00000000000000000e+00
-1.09108945117996226e-02  1.00000000000000000e+00  0.00000000000000000e+00
-3.46944695195361419e-18  1.00000000000000000e+00  0.00000000000000000e+00
1.09108945117996139e-02  1.00000000000000000e+00  0.00000000000000000e+00
4.99999999999999958e-02  1.00000000000000000e+00  0.00000000000000000e+00
4.99999999999999958e-02  9.54037398035889495e-01  0.00000000000000000e+00
4.99999999999999958e-02  9.72222222222222210e-01  0.00000000000000000e+00
4.99999999999999958e-02  9.90407046408554925e-01  0.00000000000000000e+00
2.24224388215337120e-02  1.00000000000000000e+00  0.00000000000000000e+00
3.33333333333333259e-02  1.00000000000000000e+00  0.00000000000000000e+00
4.42442278451329468e-02  1.00000000000000000e+00  0.00000000000000000e+00

CELLS 0 0


CELL_TYPES 0


POINT_DATA 157

VECTORS VertexNormals double

0.00000000000000000e+00 0.00000000000000000e+00 0
0.00000000000000000e+00 0.00000000000000000e+00 0
0.00000000000000000e+00 0.00000000000000000e+00 0
0.00000000000000000e+00 0.00000000000000000e+00 0
0.00000000000000000e+00 0.00000000000000000e+00 0
0.00000000000000000e+00 0.00000000000000000e+00 0
0.00000000000000000e+00 0.00000000000000000e+00 0
0.00000000000000000e+00 0.00000000000000000e+00 0
0.00000000000000000e+00 0.00000000000000000e+00 0
0.00000000000000000e+00 0.00000000000000000e+00 0
0.00000000000000000e+00 0.00000000000000000e+00 0
0.00000000000000000e+00 0.00000000000000000e+00 0
0.00000000000000000e+00 0.00000000000000000e+00 0
0.00000000000000000e+00 0.00000000000000000e+00 0
0.00000000000000000e+00 0.00000000000000000e+00 0
0.00000000000000000e+00 0.00000000000000000e+00 0
0.00000000000000000e+00 0.00000000000000000e+00 0
0.00000000000000000e+00 0.00000000000000000e+00 0
0.00000000000000000e+00 0.00000000000000000e+00 0
0.00000000000000000e+00 0.00000000000000000e+00 0
0.00000000000000000e+00 0.00000000000000000e+00 0
0.00000000000000000e+00 0.00000000000000000e+00 0
0.00000000000000000e+00 0.00000000000000000e+00 0
0.00000000000000000e+00 0.00000000000000000e+00 0
0.00000000000000000e+00 0.00000000000000000e+00 0
0.00000000000000000e+00 0.00000000000000000e+00 0
0.00000000000000000e+00 0.00000000000000000e+00 0
0.00000000000000000e+00 0.00000000000000000e+00 0
0.00000000000000000e+00 0.00000000000000000e+00 0
0.00000000000000000e+00 0.00000000000000000e+00 0
0.00000000000000000e+00 0.00000000000000000e+00 0
0.00000000000000000e+00 0.00000000000000000e+00 0
0.00000000000000000e+00 0.00000000000000000e+00 0
0.00000000000000000e+00 0.00000000000000000e+00 0
0.00000000000000000e+00 0.00000000000000000e+00 0
0.00000000000000000e+00 0.00000000000000000e+00 0
0.00000000000000000e+00 0.00000000000000000e+00 0
0.00000000000000000e+00 0.00000000000000000e+00 0
0.00000000000000000e+00 0.00000000000000000e+00 0
0.00000000000000000e+00 0.00000000000000000e+00 0
0.00000000000000000e+00 0.00000000000000000e+00 0
0.00000000000000000e+00 0.00000000000000000e+00 0
0.00000000000000000e+00 0.00000000000000000e+00 0
0.00000000000000000e+00 0.00000000000000000e+00 0
0.00000000000000000e+00 0.00000000000000000e+00 0
0.00000000000000000e+00 0.00000000000000000e+00 0
0.00000000000000000e+00 0.00000000000000000e+00 0
0.00000000000000000e+00 0.00000000000000000e+00 0
0.00000000000000000e+00 0.00000000000000000e+00 0
0.00000000000000000e+00 0.00000000000000000e+00 0
0.00000000000000000e+00 0.00000000000000000e+00 0
0.00000000000000000e+00 0.00000000000000000e+00 0
0.00000000000000000e+00 0.00000000000000000e+00 0
0.00000000000000000e+00 0.00000000000000000e+00 0
0.00000000000000000e+00 0.00000000000000000e+00 0
0.00000000000000000e+00 0.00000000000000000e+00 0
0.00000000000000000e+00 0.00000000000000000e+00 0
0.00000000000000000e+00 0.00000000000000000e+00 0
0.00000000000000000e+00 0.00000000000000000e+00 0
0.00000000000000000e+00 0.00000000000000000e+00 0
0.00000000000000000e+00 0.00000000000000000e+00 0
0.00000000000000000e+00 0.00000000000000000e+00 0
0.00000000000000000e+00 0.00000000000000000e+00 0
0.00000000000000000e+00 0.00000000000000000e+00 0
0.00000000000000000e+00 0.00000000000000000e+00 0
0.00000000000000000e+00 0.00000000000000000e+00 0
0.00000000000000000e+00 0.00000000000000000e+00 0
0.00000000000000000e+00 0.00000000000000000e+00 0
0.00000000000000000e+00 0.00000000000000000e+00 0
0.00000000000000000e+00 0.00000000000000000e+00 0
0.00000000000000000e+00 0.00000000000000000e+00 0
0.00000000000000000e+00 0.00000000000000000e+00 0
0.00000000000000000e+00 0.00000000000000000e+00 0
0.00000000000000000e+00 0.00000000000000000e+00 0
0.00000000000000000e+00 0.00000000000000000e+00 0
0.00000000000000000e+00 0.00000000000000000e+00 0
0.00000000000000000e+00 0.00000000000000000e+00 0
0.00000000000000000e+00 0.00000000000000000e+00 0
0.00000000000000000e+00 0.00000000000000000e+00 0
0.00000000000000000e+00 0.00000000000000000e+00 0
0.00000000000000000e+00 0.00000000000000000e+00 0
0.00000000000000000e+00 0.00000000000000000e+00 0
0.00000000000000000e+00 0.00000000000000000e+00 0
0.00000000000000000e+00 0.00000000000000000e+00 0
0.00000000000000000e+00 0.00000000000000000e+00 0
0.00000000000000000e+00 0.00000000000000000e+00 0
0.00000000000000000e+00 0.00000000000000000e+00 0
0.00000000000000000e+00 0.00000000000000000e+00 0
0.00000000000000000e+00 0.00000000000000000e+00 0
0.00000000000000000e+00 0.00000000000000000e+00 0
0.00000000000000000e+00 0.00000000000000000e+00 0
0.00000000000000000e+00 0.00000000000000000e+00 0
0.00000000000000000e+00 0.00000000000000000e+00 0
0.00000000000000000e+00 0.00000000000000000e+00 0
0.00000000000000000e+00 0.00000000000000000e+00 0
0.00000000000000000e+00 0.00000000000000000e+00 0
0.00000000000000000e+00 0.00000000000000000e+00 0
0.00000000000000000e+00 0.00000000000000000e+00 0
0.00000000000000000e+00 0.00000000000000000e+00 0
0.00000000000000000e+00 0.00000000000000000e+00 0
0.00000000000000000e+00 0.00000000000000000e+00 0
0.00000000000000000e+00 0.00000000000000000e+00 0
0.00000000000000000e+00 0.00000000000000000e+00 0
0.00000000000000000e+00 0.00000000000000000e+00 0
0.00000000000000000e+00 0.00000000000000000e+00 0
0.00000000000000000e+00 0.00000000000000000e+00 0
0.00000000000000000e+00 0.00000000000000000e+00 0
0.00000000000000000e+00 0.00000000000000000e+00 0
0.00000000000000000e+00 0.00000000000000000e+00 0
0.00000000000000000e+00 0.00000000000000000e+00 0
0.00000000000000000e+00 0.00000000000000000e+00 0
0.00000000000000000e+00 0.00000000000000000e+00 0
0.00000000000000000e+00 0.00000000000000000e+00 0
0.00000000000000000e+00 0.00000000000000000e+00 0
0.00000000000000000e+00 0.00000000000000000e+00 0
0.00000000000000000e+00 0.00000000000000000e+00 0
0.00000000000000000e+00 0.00000000000000000e+00 0
0.00000000000000000e+00 0.00000000000000000e+00 0
0.00000000000000000e+00 0.00000000000000000e+00 0
0.00000000000000000e+00 0.00000000000000000e+00 0
0.00000000000000000e+00 0.00000000000000000e+00 0
0.00000000000000000e+00 0.00000000000000000e+00 0
0.00000000000000000e+00 0.00000000000000000e+00 0
0.00000000000000000e+00 0.00000000000000000e+00 0
0.00000000000000000e+00 0.00000000000000000e+00 0
0.00000000000000000e+00 0.00000000000000000e+00 0
0.00000000000000000e+00 0.00000000000000000e+00 0
0.00000000000000000e+00 0.00000000000000000e+00 0
0.00000000000000000e+00 0.00000000000000000e+00 0
0.00000000000000000e+00 0.00000000000000000e+00 0
0.00000000000000000e+00 0.00000000000000000e+00 0
0.00000000000000000e+00 0.00000000000000000e+00 0
0.00000000000000000e+00 0.00000000000000000e+00 0
0.00000000000000000e+00 0.00000000000000000e+00 0
0.00000000000000000e+00 0.00000000000000000e+00 0
0.00000000000000000e+00 0.00000000000000000e+00 0
0.00000000000000000e+00 0.00000000000000000e+00 0
0.00000000000000000e+00 0.00000000000000000e+00 0
0.00000000000000000e+00 0.00000000000000000e+00 0
0.00000000000000000e+00 0.00000000000000000e+00 0
0.00000000000000000e+00 0.00000000000000000e+00 0
0.00000000000000000e+00 0.00000000000000000e+00 0
0.00000000000000000e+00 0.00000000000000000e+00 0
0.00000000000000000e+00 0.00000000000000000e+00 0
0.00000000000000000e+00 0.00000000000000000e+00 0
0.00000000000000000e+00 0.00000000000000000e+00 0
0.00000000000000000e+00 0.00000000000000000e+00 0
0.00000000000000000e+00 0.00000000000000000e+00 0
0.00000000000000000e+00 0.00000000000000000e+00 0
0.00000000000000000e+00 0.00000000000000000e+00 0
0.00000000000000000e+00 0.00000000000000000e+00 0
0.00000000000000000e+00 0.00000000000000000e+00 0
0.00000000000000000e+00 0.00000000000000000e+00 0
0.00000000000000000e+00 0.00000000000000000e+00 0
0.00000000000000000e+00 0.00000000000000000e+00 0
0.00000000000000000e+00 0.00000000000000000e+00 0
0.00000000000000000e+00 0.00000000000000000e+00 0

VECTORS Displacement double
0.00000000000000000e+00 0.00000000000000000e+00 0
6.41996535757837523e-06 7.19097039304020518e-06 0
1.13999813641491793e-06 1.55457484368619496e-06 0
2.81114479492221277e-06 3.89915053778784516e-06 0
5.01270500066602774e-06 6.10383186741813484e-06 0
0.00000000000000000e+00 0.00000000000000000e+00 0
6.26786585348607183e-06 -6.72856953116590237e-06 0
1.05765100785288923e-06 -1.45029773420693052e-06 0
2.65482909330044423e-06 -3.65325703292058994e-06 0
4.84991536937580744e-06 -5.71802795588177740e-06 0
1.83202097470268427e-05 1.26579402688965830e-05 0
8.05884929297503096e-06 8.24572422490285865e-06 0
1.16782923748671306e-05 1.01202612250671966e-05 0
1.59153425476385250e-05 1.18216005645378612e-05 0
1.81666800695518289e-05 -1.17557745557855192e-05 0
7.91019363668934366e-06 -7.70549502043995092e-06 0
1.15195208825183390e-05 -9.43168134668473862e-06 0
1.57413812290347844e-05 -1.09923320096007718e-05 0
3.50849759681720472e-05 1.67524613783701657e-05 0
2.08922309832127670e-05 1.34664787388000941e-05 0
2.61676593535389463e-05 1.48783303078488137e-05 0
3.18967506344732741e-05 1.61423354166040905e-05 0
3.49209525475365528e-05 -1.54224505889355064e-05 0
2.07487277206189793e-05 -1.24841976139538560e-05 0
2.60247910635762303e-05 -1.37520134368522573e-05 0
3.17434039528732240e-05 -1.48800769146978619e-05 0
5.51448220654896816e-05 1.97913954370266707e-05 0
3.83258205537677856e-05 1.73306270857169224e-05 0
4.47370831329581205e-05 1.83592451192864219e-05 0
5.14660698441106297e-05 1.93117808841863151e-05 0
5.50078428215543998e-05 -1.80479899455870879e-05 0
3.81756275891726940e-05 -1.59334250179885105e-05 0
4.46032570976316969e-05 -1.68296453597635109e-05 0
5.13370138886015860e-05 -1.76444554081634497e-05 0
7.77234066679004460e-05 2.22410086187759159e-05 0
5.89165068135378227e-05 2.02394340450670938e-05 0
6.61576707044759501e-05 2.10533039984470547e-05 0
7.36543318834735535e-05 2.18393254320427694e-05 0
7.75875995565288961e-05 -2.00833045691983501e-05 0
5.87606242533646986e-05 -1.84277971753773265e-05 0
6.60201306931847441e-05 -1.91103313201266330e-05 0
7.35260360775567004e-05 -1.97561148237183997e-05 0
1.02411664180719977e-04 2.44848733078572853e-05 0
8.18698416824592014e-05 2.26364403480699226e-05 0
8.98677159171687266e-05 2.33627988991481576e-05 0
9.80108450385787762e-05 2.40902162479173099e-05 0
1.02278973418226774e-04 -2.18966094692848869e-05 0
8.17180836331966604e-05 -2.04035290003425585e-05 0
8.97024369156627639e-05 -2.09937359970665559e-05 0
9.78729312487117305e-05 -2.15815447651306553e-05 0
1.29239426003614343e-04 2.68383294301704556e-05 0
1.06893528609227863e-04 2.48832752017385869e-05 0
1.15597474183616619e-04 2.56372268796036818e-05 0
1.24470736159855194e-04 2.64112115347064130e-05 0
1.29097826065876483e-04 -2.38140188000792262e-05 0
1.06754917662826968e-04 -2.22147194757435100e-05 0
1.15428952646748562e-04 -2.28250305802837742e-05 0
1.24313479102598008e-04 -2.34619764485983128e-05 0
1.58598295281783483e-04 2.94493475947694912e-05 0
1.34098964064057510e-04 2.72745370944739984e-05 0
1.43570996515218795e-04 2.81266616956367986e-05 0
1.53361264582040519e-04 2.89904584605310627e-05 0
1.58455195809427619e-04 -2.60011006810412566e-05 0
1.33964953178908612e-04 -2.41747946316972274e-05 0
1.43427701392616060e-04 -2.48819966934709754e-05 0
1.53198407160269970e-04 -2.56092399554914626e-05 0
1.90925802853923526e-04 3.20991567949753515e-05 0
1.63945125058264664e-04 2.99250263851769436e-05 0
1.74362017665465995e-04 3.08114438971372284e-05 0
1.85117802501537333e-04 3.16671724265813885e-05 0
1.90763754318932420e-04 -2.82395329510891801e-05 0
1.63811167644107940e-04 -2.64008587717994725e-05 0
1.74225999099587316e-04 -2.71500512855307768e-05 0
1.84968452912745267e-04 -2.78743553764099244e-05 0
2.25827389273393364e-04 3.43890013735991364e-05 0
1.96766469456933281e-04 3.25175602086250949e-05 0
2.08064074348670414e-04 3.32855271184842347e-05 0
2.19624271328276873e-04 3.40153723688426548e-05 0
2.25694960311482974e-04 -3.01262118027208317e-05 0
1.96618165324842731e-04 -2.85948868500368561e-05 0
2.07933031535006746e-04 -2.92348306093912797e-05 0
2.19499279957099556e-04 -2.98287922113909561e-05 0
2.62698603971332539e-04 3.63785566223229369e-05 0
2.32106862963042296e-04 3.47386961721260758e-05 0
2.44050729270674878e-04 3.53822617486758694e-05 0
2.56194436145814404e-04 3.60323749494923155e-05 0
2.62575899131582745e-04 -3.17215748152471688e-05 0
2.31955050939046734e-04 -3.04066830560128437e-05 0
2.43919172431511906e-04 -3.09281065792108085e-05 0
2.56076960166411486e-04 -3.14467213318178751e-05 0
3.01446087060575248e-04 3.84739987508011741e-05 0
2.69272954692956017e-04 3.67300757622115973e-05 0
2.81865145411332781e-04 3.73977361716799323e-05 0
2.94608834621475307e-04 3.80897806320755291e-05 0
3.01338731867911388e-04 -3.34294384530678805e-05 0
2.69136494231018097e-04 -3.19996452080465257e-05 0
2.81717498762179953e-04 -3.25406567695978776e-05 0
2.94492668625483144e-04 -3.31144471645681047e-05 0
3.42524255111612312e-04 4.06996333082634002e-05 0
3.08372693231083982e-04 3.88643505634060282e-05 0
3.21735263458273557e-04 3.95978695639759469e-05 0
3.35286934224742720e-04 4.03178747832234731e-05 0
3.42420617320846640e-04 -3.52903722912144337e-05 0
3.08263034227401918e-04 -3.37485484384621753e-05 0
3.21601002199065338e-04 -3.43528198139937286e-05 0
3.35165733387208392e-04 -3.49643882236048064e-05 0
3.85990936665356452e-04 4.27981909069731853e-05 0
3.49849452668381787e-04 4.10794732862348197e-05 0
3.63971268788972622e-04 4.17916812674688572e-05 0
3.78359534195531926e-04 4.24662092372021932e-05 0
3.85898755396005808e-04 -3.70681041492566880e-05 0
3.49756143300378511e-04 -3.56130537822762258e-05 0
3.63876280620103988e-04 -3.62100222811218808e-05 0
3.78249323213421132e-04 -3.67766434228343687e-05 0
4.31619657073278710e-04 4.45526993266264230e-05 0
3.93705399450529293e-04 4.31372236773122040e-05 0
4.08531717737391231e-04 4.37406164931440080e-05 0
4.23587454021775100e-04 4.42891544065086317e-05 0
4.31520078694050424e-04 -3.85475658989642062e-05 0
3.93623495650616208e-04 -3.73562118992238886e-05 0
4.08450087286228519e-04 -3.78691548359720258e-05 0
4.23497157593937629e-04 -3.83308078519499073e-05 0
4.78762751028886469e-04 4.57333714154687651e-05 0
4.39651979297438439e-04 4.47889436941538663e-05 0
4.55015205503691558e-04 4.52031171883873043e-05 0
4.70524603315667820e-04 4.55627563853854795e-05 0
4.78706523706873245e-04 -3.94816175558778312e-05 0
4.39564343306963947e-04 -3.87518543304104815e-05 0
4.54948612045033140e-04 -3.90915328966858874e-05 0
4.70471006169593620e-04 -3.93643126997559657e-05 0
5.26683573013052167e-04 4.62980416844569213e-05 0
4.87045866284333624e-04 4.58746547119471746e-05 0
5.02682524565212078e-04 4.60687330941705330e-05 0
5.18372498981060264e-04 4.62275845058465791e-05 0
5.26643460898821312e-04 -3.98440419779346307e-05 0
4.86974986972677350e-04 -3.95709625144583562e-05 0
5.02624367688624791e-04 -3.97122844668863144e-05 0
5.18331765196716884e-04 -3.98116310572705555e-05 0
5.74724131729573628e-04 4.64339684414860697e-05 0
5.74709891028836396e-04 1.76331342147661341e-05 0
5.35018022808476847e-04 4.63587449833129396e-05 0
5.50781846251630373e-04 4.64195196523449014e-05 0
5.66449200492531550e-04 4.64285432807574886e-05 0
5.74726538198140581e-04 4.14690396282786847e-05 0
5.74736561930965905e-04 3.20571195117278065e-05 0
5.74721810605585302e-04 2.26085940172908894e-05 0
5.74691075645761252e-04 -1.11084372482358257e-05 0
5.74703061362787549e-04 1.26699179944960473e-05 0
5.74699642089885406e-04 3.27264091619565825e-06 0
5.74692685245956352e-04 -6.14424797567655618e-06 0
5.74705441856403795e-04 -3.98700571742150519e-05 0
5.34975112288914312e-04 -3.98613531097752352e-05 0
5.50736216847040128e-04 -3.98618120385019754e-05 0
5.66419235336626460e-04 -3.98638171605839985e-05 0
5.74695268730351732e-04 -1.60668190672535372e-05 0
5.74707244587096384e-04 -2.54692596272755665e-05 0
5.74706122661932067e-04 -3.48941333405821213e-05 0

VECTORS Force double
1.82345554362813550e-01 9.08827001166634136e-04 0
-8.62632991217636147e-01 4.07299220740184017e-04 0
-8.77102259531248540e-01 -2.04648145678622766e-04 0
6.87466085264616034e+00 -3.91941400484461556e-03 0
3.31648105112141689e+00 -1.86966806677777266e-03 0
9.00817934688821070e-02 9.03806300581932879e-04 0
-4.45010636804040849e-01 5.40351042625124029e-04 0
-4.49935264064513396e-01 -2.17392787834730757e-04 0
3.54714397578685148e+00 -3.84125326772625543e-03 0
1.71150087129936179e+00 -1.85837382778198030e-03 0
-7.72268611784823644e-01 3.06470860170317055e-03 0
-4.96237837820759017e-02 4.29337207606710536e-04 0
5.57444084028297815e-01 -2.23364957154546491e-03 0
8.90160325605896396e+00 -3.44307769851421031e-02 0
-3.91366254814599912e-01 -1.05203949109924813e-03 0
-2.40612363673631327e-02 -1.62232875600885716e-04 0
2.82429070825268302e-01 6.86897618440107400e-04 0
4.51160149146036371e+00 1.15360706101124404e-02 0
8.71630626862154401e+00 -4.46095363446679383e-02 0
8.80617665249480847e-02 -4.24697972840531416e-04 0
-1.62875390801379208e-02 6.73175879327402862e-05 0
2.48223555241976306e-02 4.07769785198411951e-05 0
4.31467896563677655e+00 7.22516384023826203e-02 0
4.44108956712779973e-02 1.10296298148488770e-04 0
-8.63306034843764475e-03 -1.59995405963341640e-05 0
1.18732392209526059e-02 2.69266992327107401e-05 0
-7.88558688525446416e-01 2.73171700062611530e-03 0
2.66366083134712515e-02 -2.64031615453047121e-05 0
-1.50446323162027520e-02 -3.41156914560966182e-05 0
8.77585768836750685e-02 -3.90606654510051185e-04 0
-3.82673602472622776e-01 -1.55500699529332528e-02 0
1.31231460247601944e-02 -8.96413074423127218e-06 0
-7.61794461683688862e-03 -2.62804934909934191e-04 0
4.24751619940977182e-02 1.93959029540351170e-03 0
-8.97709728609129121e-01 -2.04579263616505016e-03 0
9.08500923529244631e+00 -3.05164393716212991e-02 0
5.68606274809994150e-01 -1.96905642206959917e-03 0
-5.13207189796913085e-02 5.56203542740067855e-04 0
-4.29855010414691097e-01 -2.94912182109821099e-02 0
4.40697306092980501e+00 1.72677520463932449e-01 0
2.75800078057088505e-01 1.04047639291706909e-02 0
-2.51225673208799981e-02 2.14780509178995354e-04 0
4.50922211461851352e-01 3.19410840580388591e-03 0
3.44772478180643516e+00 7.17570293266507966e-03 0
7.13415124634936770e+00 1.48165000317768067e-02 0