# vtk DataFile Version 2.0

ASCII

DATASET UNSTRUCTURED_GRID

POINTS 157 double 

-5.00000000000000028e-02  0.00000000000000000e+00  0.00000000000000000e+00
-5.00000000000000028e-02  5.55555555555555525e-02  0.00000000000000000e+00
-5.00000000000000028e-02  9.59295359144507823e-03  0.00000000000000000e+00
-5.00000000000000028e-02  2.77777777777777762e-02  0.00000000000000000e+00
-5.00000000000000028e-02  4.59626019641104708e-02  0.00000000000000000e+00
4.99999999999999958e-02  0.00000000000000000e+00  0.00000000000000000e+00
4.99999999999999958e-02  5.55555555555555525e-02  0.00000000000000000e+00
4.99999999999999958e-02  9.59295359144507823e-03  0.00000000000000000e+00
4.99999999999999958e-02  2.77777777777777762e-02  0.00000000000000000e+00
4.99999999999999958e-02  4.59626019641104708e-02  0.00000000000000000e+00
-5.00000000000000028e-02  1.11111111111111105e-01  0.00000000000000000e+00
-5.00000000000000028e-02  6.51485091470006272e-02  0.00000000000000000e+00
-5.00000000000000028e-02  8.33333333333333287e-02  0.00000000000000000e+00
-5.00000000000000028e-02  1.01518157519666030e-01  0.00000000000000000e+00
4.99999999999999958e-02  1.11111111111111105e-01  0.00000000000000000e+00
4.99999999999999958e-02  6.51485091470006272e-02  0.00000000000000000e+00
4.99999999999999958e-02  8.33333333333333287e-02  0.00000000000000000e+00
4.99999999999999958e-02  1.01518157519666030e-01  0.00000000000000000e+00
-5.00000000000000028e-02  1.66666666666666657e-01  0.00000000000000000e+00
-5.00000000000000028e-02  1.20704064702556180e-01  0.00000000000000000e+00
-5.00000000000000028e-02  1.38888888888888895e-01  0.00000000000000000e+00
-5.00000000000000028e-02  1.57073713075221583e-01  0.00000000000000000e+00
4.99999999999999958e-02  1.66666666666666657e-01  0.00000000000000000e+00
4.99999999999999958e-02  1.20704064702556180e-01  0.00000000000000000e+00
4.99999999999999958e-02  1.38888888888888895e-01  0.00000000000000000e+00
4.99999999999999958e-02  1.57073713075221583e-01  0.00000000000000000e+00
-5.00000000000000028e-02  2.22222222222222210e-01  0.00000000000000000e+00
-5.00000000000000028e-02  1.76259620258111732e-01  0.00000000000000000e+00
-5.00000000000000028e-02  1.94444444444444420e-01  0.00000000000000000e+00
-5.00000000000000028e-02  2.12629268630777135e-01  0.00000000000000000e+00
4.99999999999999958e-02  2.22222222222222210e-01  0.00000000000000000e+00
4.99999999999999958e-02  1.76259620258111732e-01  0.00000000000000000e+00
4.99999999999999958e-02  1.94444444444444420e-01  0.00000000000000000e+00
4.99999999999999958e-02  2.12629268630777135e-01  0.00000000000000000e+00
-5.00000000000000028e-02  2.77777777777777790e-01  0.00000000000000000e+00
-5.00000000000000028e-02  2.31815175813667285e-01  0.00000000000000000e+00
-5.00000000000000028e-02  2.50000000000000000e-01  0.00000000000000000e+00
-5.00000000000000028e-02  2.68184824186332715e-01  0.00000000000000000e+00
4.99999999999999958e-02  2.77777777777777790e-01  0.00000000000000000e+00
4.99999999999999958e-02  2.31815175813667285e-01  0.00000000000000000e+00
4.99999999999999958e-02  2.50000000000000000e-01  0.00000000000000000e+00
4.99999999999999958e-02  2.68184824186332715e-01  0.00000000000000000e+00
-5.00000000000000028e-02  3.33333333333333315e-01  0.00000000000000000e+00
-5.00000000000000028e-02  2.87370731369222865e-01  0.00000000000000000e+00
-5.00000000000000028e-02  3.05555555555555580e-01  0.00000000000000000e+00
-5.00000000000000028e-02  3.23740379741888240e-01  0.00000000000000000e+00
4.99999999999999958e-02  3.33333333333333315e-01  0.00000000000000000e+00
4.99999999999999958e-02  2.87370731369222865e-01  0.00000000000000000e+00
4.99999999999999958e-02  3.05555555555555580e-01  0.00000000000000000e+00
4.99999999999999958e-02  3.23740379741888240e-01  0.00000000000000000e+00
-5.00000000000000028e-02  3.88888888888888840e-01  0.00000000000000000e+00
-5.00000000000000028e-02  3.42926286924778334e-01  0.00000000000000000e+00
-5.00000000000000028e-02  3.61111111111111049e-01  0.00000000000000000e+00
-5.00000000000000028e-02  3.79295935297443765e-01  0.00000000000000000e+00
4.99999999999999958e-02  3.88888888888888840e-01  0.00000000000000000e+00
4.99999999999999958e-02  3.42926286924778334e-01  0.00000000000000000e+00
4.99999999999999958e-02  3.61111111111111049e-01  0.00000000000000000e+00
4.99999999999999958e-02  3.79295935297443765e-01  0.00000000000000000e+00
-5.00000000000000028e-02  4.44444444444444420e-01  0.00000000000000000e+00
-5.00000000000000028e-02  3.98481842480333914e-01  0.00000000000000000e+00
-5.00000000000000028e-02  4.16666666666666630e-01  0.00000000000000000e+00
-5.00000000000000028e-02  4.34851490852999345e-01  0.00000000000000000e+00
4.99999999999999958e-02  4.44444444444444420e-01  0.00000000000000000e+00
4.99999999999999958e-02  3.98481842480333914e-01  0.00000000000000000e+00
4.99999999999999958e-02  4.16666666666666630e-01  0.00000000000000000e+00
4.99999999999999958e-02  4.34851490852999345e-01  0.00000000000000000e+00
-5.00000000000000028e-02  5.00000000000000000e-01  0.00000000000000000e+00
-5.00000000000000028e-02  4.54037398035889495e-01  0.00000000000000000e+00
-5.00000000000000028e-02  4.72222222222222210e-01  0.00000000000000000e+00
-5.00000000000000028e-02  4.90407046408554925e-01  0.00000000000000000e+00
4.99999999999999958e-02  5.00000000000000000e-01  0.00000000000000000e+00
4.99999999999999958e-02  4.54037398035889495e-01  0.00000000000000000e+00
4.99999999999999958e-02  4.72222222222222210e-01  0.00000000000000000e+00
4.99999999999999958e-02  4.90407046408554925e-01  0.00000000000000000e+00
-5.00000000000000028e-02  5.55555555555555580e-01  0.00000000000000000e+00
-5.00000000000000028e-02  5.09592953591445075e-01  0.00000000000000000e+00
-5.00000000000000028e-02  5.27777777777777790e-01  0.00000000000000000e+00
-5.00000000000000028e-02  5.45962601964110505e-01  0.00000000000000000e+00
4.99999999999999958e-02  5.55555555555555580e-01  0.00000000000000000e+00
4.99999999999999958e-02  5.09592953591445075e-01  0.00000000000000000e+00
4.99999999999999958e-02  5.27777777777777790e-01  0.00000000000000000e+00
4.99999999999999958e-02  5.45962601964110505e-01  0.00000000000000000e+00
-5.00000000000000028e-02  6.11111111111111049e-01  0.00000000000000000e+00
-5.00000000000000028e-02  5.65148509147000655e-01  0.00000000000000000e+00
-5.00000000000000028e-02  5.83333333333333259e-01  0.00000000000000000e+00
-5.00000000000000028e-02  6.01518157519665975e-01  0.00000000000000000e+00
4.99999999999999958e-02  6.11111111111111049e-01  0.00000000000000000e+00
4.99999999999999958e-02  5.65148509147000655e-01  0.00000000000000000e+00
4.99999999999999958e-02  5.83333333333333259e-01  0.00000000000000000e+00
4.99999999999999958e-02  6.01518157519665975e-01  0.00000000000000000e+00
-5.00000000000000028e-02  6.66666666666666630e-01  0.00000000000000000e+00
-5.00000000000000028e-02  6.20704064702556013e-01  0.00000000000000000e+00
-5.00000000000000028e-02  6.38888888888888840e-01  0.00000000000000000e+00
-5.00000000000000028e-02  6.57073713075221555e-01  0.00000000000000000e+00
4.99999999999999958e-02  6.66666666666666630e-01  0.00000000000000000e+00
4.99999999999999958e-02  6.20704064702556013e-01  0.00000000000000000e+00
4.99999999999999958e-02  6.38888888888888840e-01  0.00000000000000000e+00
4.99999999999999958e-02  6.57073713075221555e-01  0.00000000000000000e+00
-5.00000000000000028e-02  7.22222222222222210e-01  0.00000000000000000e+00
-5.00000000000000028e-02  6.76259620258111704e-01  0.00000000000000000e+00
-5.00000000000000028e-02  6.94444444444444420e-01  0.00000000000000000e+00
-5.00000000000000028e-02  7.12629268630777135e-01  0.00000000000000000e+00
4.99999999999999958e-02  7.22222222222222210e-01  0.00000000000000000e+00
4.99999999999999958e-02  6.76259620258111704e-01  0.00000000000000000e+00
4.99999999999999958e-02  6.94444444444444420e-01  0.00000000000000000e+00
4.99999999999999958e-02  7.12629268630777135e-01  0.00000000000000000e+00
-5.00000000000000028e-02  7.77777777777777679e-01  0.00000000000000000e+00
-5.00000000000000028e-02  7.31815175813667174e-01  0.00000000000000000e+00
-5.00000000000000028e-02  7.50000000000000000e-01  0.00000000000000000e+00
-5.00000000000000028e-02  7.68184824186332604e-01  0.00000000000000000e+00
4.99999999999999958e-02  7.77777777777777679e-01  0.00000000000000000e+00
4.99999999999999958e-02  7.31815175813667174e-01  0.00000000000000000e+00
4.99999999999999958e-02  7.50000000000000000e-01  0.00000000000000000e+00
4.99999999999999958e-02  7.68184824186332604e-01  0.00000000000000000e+00
-5.00000000000000028e-02  8.33333333333333259e-01  0.00000000000000000e+00
-5.00000000000000028e-02  7.87370731369222754e-01  0.00000000000000000e+00
-5.00000000000000028e-02  8.05555555555555469e-01  0.00000000000000000e+00
-5.00000000000000028e-02  8.23740379741888185e-01  0.00000000000000000e+00
4.99999999999999958e-02  8.33333333333333259e-01  0.00000000000000000e+00
4.99999999999999958e-02  7.87370731369222754e-01  0.00000000000000000e+00
4.99999999999999958e-02  8.05555555555555469e-01  0.00000000000000000e+00
4.99999999999999958e-02  8.23740379741888185e-01  0.00000000000000000e+00
-5.00000000000000028e-02  8.88888888888888840e-01  0.00000000000000000e+00
-5.00000000000000028e-02  8.42926286924778334e-01  0.00000000000000000e+00
-5.00000000000000028e-02  8.61111111111111049e-01  0.00000000000000000e+00
-5.00000000000000028e-02  8.79295935297443765e-01  0.00000000000000000e+00
4.99999999999999958e-02  8.88888888888888840e-01  0.00000000000000000e+00
4.99999999999999958e-02  8.42926286924778334e-01  0.00000000000000000e+00
4.99999999999999958e-02  8.61111111111111049e-01  0.00000000000000000e+00
4.99999999999999958e-02  8.79295935297443765e-01  0.00000000000000000e+00
-5.00000000000000028e-02  9.44444444444444420e-01  0.00000000000000000e+00
-5.00000000000000028e-02  8.98481842480333914e-01  0.00000000000000000e+00
-5.00000000000000028e-02  9.16666666666666630e-01  0.00000000000000000e+00
-5.00000000000000028e-02  9.34851490852999345e-01  0.00000000000000000e+00
4.99999999999999958e-02  9.44444444444444420e-01  0.00000000000000000e+00
4.99999999999999958e-02  8.98481842480333914e-01  0.00000000000000000e+00
4.99999999999999958e-02  9.16666666666666630e-01  0.00000000000000000e+00
4.99999999999999958e-02  9.34851490852999345e-01  0.00000000000000000e+00
-5.00000000000000028e-02  1.00000000000000000e+00  0.00000000000000000e+00
-1.66666666666666699e-02  1.00000000000000000e+00  0.00000000000000000e+00
-5.00000000000000028e-02  9.54037398035889495e-01  0.00000000000000000e+00
-5.00000000000000028e-02  9.72222222222222210e-01  0.00000000000000000e+00
-5.00000000000000028e-02  9.90407046408554925e-01  0.00000000000000000e+00
-4.42442278451329538e-02  1.00000000000000000e+00  0.00000000000000000e+00
-3.33333333333333398e-02  1.00000000000000000e+00  0.00000000000000000e+00
-2.24224388215337189e-02  1.00000000000000000e+00  0.00000000000000000e+00
1.66666666666666630e-02  1.00000000000000000e+00  0.00000000000000000e+00
-1.09108945117996226e-02  1.00000000000000000e+00  0.00000000000000000e+00
-3.46944695195361419e-18  1.00000000000000000e+00  0.00000000000000000e+00
1.09108945117996139e-02  1.00000000000000000e+00  0.00000000000000000e+00
4.99999999999999958e-02  1.00000000000000000e+00  0.00000000000000000e+00
4.99999999999999958e-02  9.54037398035889495e-01  0.00000000000000000e+00
4.99999999999999958e-02  9.72222222222222210e-01  0.00000000000000000e+00
4.99999999999999958e-02  9.90407046408554925e-01  0.00000000000000000e+00
2.24224388215337120e-02  1.00000000000000000e+00  0.00000000000000000e+00
3.33333333333333259e-02  1.00000000000000000e+00  0.00000000000000000e+00
4.42442278451329468e-02  1.00000000000000000e+00  0.00000000000000000e+00

CELLS 0 0


CELL_TYPES 0


POINT_DATA 157

VECTORS VertexNormals double

0.00000000000000000e+00 0.00000000000000000e+00 0
0.00000000000000000e+00 0.00000000000000000e+00 0
0.00000000000000000e+00 0.00000000000000000e+00 0
0.00000000000000000e+00 0.00000000000000000e+00 0
0.00000000000000000e+00 0.00000000000000000e+00 0
0.00000000000000000e+00 0.00000000000000000e+00 0
0.00000000000000000e+00 0.00000000000000000e+00 0
0.00000000000000000e+00 0.00000000000000000e+00 0
0.00000000000000000e+00 0.00000000000000000e+00 0
0.00000000000000000e+00 0.00000000000000000e+00 0
0.00000000000000000e+00 0.00000000000000000e+00 0
0.00000000000000000e+00 0.00000000000000000e+00 0
0.00000000000000000e+00 0.00000000000000000e+00 0
0.00000000000000000e+00 0.00000000000000000e+00 0
0.00000000000000000e+00 0.00000000000000000e+00 0
0.00000000000000000e+00 0.00000000000000000e+00 0
0.00000000000000000e+00 0.00000000000000000e+00 0
0.00000000000000000e+00 0.00000000000000000e+00 0
0.00000000000000000e+00 0.00000000000000000e+00 0
0.00000000000000000e+00 0.00000000000000000e+00 0
0.00000000000000000e+00 0.00000000000000000e+00 0
0.00000000000000000e+00 0.00000000000000000e+00 0
0.00000000000000000e+00 0.00000000000000000e+00 0
0.00000000000000000e+00 0.00000000000000000e+00 0
0.00000000000000000e+00 0.00000000000000000e+00 0
0.00000000000000000e+00 0.00000000000000000e+00 0
0.00000000000000000e+00 0.00000000000000000e+00 0
0.00000000000000000e+00 0.00000000000000000e+00 0
0.00000000000000000e+00 0.00000000000000000e+00 0
0.00000000000000000e+00 0.00000000000000000e+00 0
0.00000000000000000e+00 0.00000000000000000e+00 0
0.00000000000000000e+00 0.00000000000000000e+00 0
0.00000000000000000e+00 0.00000000000000000e+00 0
0.00000000000000000e+00 0.00000000000000000e+00 0
0.00000000000000000e+00 0.00000000000000000e+00 0
0.00000000000000000e+00 0.00000000000000000e+00 0
0.00000000000000000e+00 0.00000000000000000e+00 0
0.00000000000000000e+00 0.00000000000000000e+00 0
0.00000000000000000e+00 0.00000000000000000e+00 0
0.00000000000000000e+00 0.00000000000000000e+00 0
0.00000000000000000e+00 0.00000000000000000e+00 0
0.00000000000000000e+00 0.00000000000000000e+00 0
0.00000000000000000e+00 0.00000000000000000e+00 0
0.00000000000000000e+00 0.00000000000000000e+00 0
0.00000000000000000e+00 0.00000000000000000e+00 0
0.00000000000000000e+00 0.00000000000000000e+00 0
0.00000000000000000e+00 0.00000000000000000e+00 0
0.00000000000000000e+00 0.00000000000000000e+00 0
0.00000000000000000e+00 0.00000000000000000e+00 0
0.00000000000000000e+00 0.00000000000000000e+00 0
0.00000000000000000e+00 0.00000000000000000e+00 0
0.00000000000000000e+00 0.00000000000000000e+00 0
0.00000000000000000e+00 0.00000000000000000e+00 0
0.00000000000000000e+00 0.00000000000000000e+00 0
0.00000000000000000e+00 0.00000000000000000e+00 0
0.00000000000000000e+00 0.00000000000000000e+00 0
0.00000000000000000e+00 0.00000000000000000e+00 0
0.00000000000000000e+00 0.00000000000000000e+00 0
0.00000000000000000e+00 0.00000000000000000e+00 0
0.00000000000000000e+00 0.00000000000000000e+00 0
0.00000000000000000e+00 0.00000000000000000e+00 0
0.00000000000000000e+00 0.00000000000000000e+00 0
0.00000000000000000e+00 0.00000000000000000e+00 0
0.00000000000000000e+00 0.00000000000000000e+00 0
0.00000000000000000e+00 0.00000000000000000e+00 0
0.00000000000000000e+00 0.00000000000000000e+00 0
0.00000000000000000e+00 0.00000000000000000e+00 0
0.00000000000000000e+00 0.00000000000000000e+00 0
0.00000000000000000e+00 0.00000000000000000e+00 0
0.00000000000000000e+00 0.00000000000000000e+00 0
0.00000000000000000e+00 0.00000000000000000e+00 0
0.00000000000000000e+00 0.00000000000000000e+00 0
0.00000000000000000e+00 0.00000000000000000e+00 0
0.00000000000000000e+00 0.00000000000000000e+00 0
0.00000000000000000e+00 0.00000000000000000e+00 0
0.00000000000000000e+00 0.00000000000000000e+00 0
0.00000000000000000e+00 0.00000000000000000e+00 0
0.00000000000000000e+00 0.00000000000000000e+00 0
0.00000000000000000e+00 0.00000000000000000e+00 0
0.00000000000000000e+00 0.00000000000000000e+00 0
0.00000000000000000e+00 0.00000000000000000e+00 0
0.00000000000000000e+00 0.00000000000000000e+00 0
0.00000000000000000e+00 0.00000000000000000e+00 0
0.00000000000000000e+00 0.00000000000000000e+00 0
0.00000000000000000e+00 0.00000000000000000e+00 0
0.00000000000000000e+00 0.00000000000000000e+00 0
0.00000000000000000e+00 0.00000000000000000e+00 0
0.00000000000000000e+00 0.00000000000000000e+00 0
0.00000000000000000e+00 0.00000000000000000e+00 0
0.00000000000000000e+00 0.00000000000000000e+00 0
0.00000000000000000e+00 0.00000000000000000e+00 0
0.00000000000000000e+00 0.00000000000000000e+00 0
0.00000000000000000e+00 0.00000000000000000e+00 0
0.00000000000000000e+00 0.00000000000000000e+00 0
0.00000000000000000e+00 0.00000000000000000e+00 0
0.00000000000000000e+00 0.00000000000000000e+00 0
0.00000000000000000e+00 0.00000000000000000e+00 0
0.00000000000000000e+00 0.00000000000000000e+00 0
0.00000000000000000e+00 0.00000000000000000e+00 0
0.00000000000000000e+00 0.00000000000000000e+00 0
0.00000000000000000e+00 0.00000000000000000e+00 0
0.00000000000000000e+00 0.00000000000000000e+00 0
0.00000000000000000e+00 0.00000000000000000e+00 0
0.00000000000000000e+00 0.00000000000000000e+00 0
0.00000000000000000e+00 0.00000000000000000e+00 0
0.00000000000000000e+00 0.00000000000000000e+00 0
0.00000000000000000e+00 0.00000000000000000e+00 0
0.00000000000000000e+00 0.00000000000000000e+00 0
0.00000000000000000e+00 0.00000000000000000e+00 0
0.00000000000000000e+00 0.00000000000000000e+00 0
0.00000000000000000e+00 0.00000000000000000e+00 0
0.00000000000000000e+00 0.00000000000000000e+00 0
0.00000000000000000e+00 0.00000000000000000e+00 0
0.00000000000000000e+00 0.00000000000000000e+00 0
0.00000000000000000e+00 0.00000000000000000e+00 0
0.00000000000000000e+00 0.00000000000000000e+00 0
0.00000000000000000e+00 0.00000000000000000e+00 0
0.00000000000000000e+00 0.00000000000000000e+00 0
0.00000000000000000e+00 0.00000000000000000e+00 0
0.00000000000000000e+00 0.00000000000000000e+00 0
0.00000000000000000e+00 0.00000000000000000e+00 0
0.00000000000000000e+00 0.00000000000000000e+00 0
0.00000000000000000e+00 0.00000000000000000e+00 0
0.00000000000000000e+00 0.00000000000000000e+00 0
0.00000000000000000e+00 0.00000000000000000e+00 0
0.00000000000000000e+00 0.00000000000000000e+00 0
0.00000000000000000e+00 0.00000000000000000e+00 0
0.00000000000000000e+00 0.00000000000000000e+00 0
0.00000000000000000e+00 0.00000000000000000e+00 0
0.00000000000000000e+00 0.00000000000000000e+00 0
0.00000000000000000e+00 0.00000000000000000e+00 0
0.00000000000000000e+00 0.00000000000000000e+00 0
0.00000000000000000e+00 0.00000000000000000e+00 0
0.00000000000000000e+00 0.00000000000000000e+00 0
0.00000000000000000e+00 0.00000000000000000e+00 0
0.00000000000000000e+00 0.00000000000000000e+00 0
0.00000000000000000e+00 0.00000000000000000e+00 0
0.00000000000000000e+00 0.00000000000000000e+00 0
0.00000000000000000e+00 0.00000000000000000e+00 0
0.00000000000000000e+00 0.00000000000000000e+00 0
0.00000000000000000e+00 0.00000000000000000e+00 0
0.00000000000000000e+00 0.00000000000000000e+00 0
0.00000000000000000e+00 0.00000000000000000e+00 0
0.00000000000000000e+00 0.00000000000000000e+00 0
0.00000000000000000e+00 0.00000000000000000e+00 0
0.00000000000000000e+00 0.00000000000000000e+00 0
0.00000000000000000e+00 0.00000000000000000e+00 0
0.00000000000000000e+00 0.00000000000000000e+00 0
0.00000000000000000e+00 0.00000000000000000e+00 0
0.00000000000000000e+00 0.00000000000000000e+00 0
0.00000000000000000e+00 0.00000000000000000e+00 0
0.00000000000000000e+00 0.00000000000000000e+00 0
0.00000000000000000e+00 0.00000000000000000e+00 0
0.00000000000000000e+00 0.00000000000000000e+00 0
0.00000000000000000e+00 0.00000000000000000e+00 0
0.00000000000000000e+00 0.00000000000000000e+00 0
0.00000000000000000e+00 0.00000000000000000e+00 0

VECTORS Displacement double
0.00000000000000000e+00 0.00000000000000000e+00 0
1.88461382227344485e-05 2.35285576992749404e-05 0
3.29586680225769975e-06 4.72778884015454120e-06 0
7.86058174870294590e-06 1.22342885348820815e-05 0
1.44207179609498905e-05 1.97081068210832272e-05 0
0.00000000000000000e+00 0.00000000000000000e+00 0
1.87792952904475819e-05 -2.33286303649027501e-05 0
3.24535048017208133e-06 -4.67801052238407162e-06 0
7.76107397960942142e-06 -1.21348112932807106e-05 0
1.43403040734108851e-05 -1.95497849087462228e-05 0
5.86110050191805245e-05 4.42860508562607810e-05 0
2.40919237768520173e-05 2.73144992085121471e-05 0
3.59228453549368550e-05 3.42605972837934427e-05 0
5.01882137127207257e-05 4.08957962485906223e-05 0
5.85172906572257410e-05 -4.38715821865931651e-05 0
2.40265046658126287e-05 -2.70737108277226615e-05 0
3.58389241721180019e-05 -3.39437362053048725e-05 0
5.00811253808099320e-05 -4.05128305802438522e-05 0
1.19534647807444322e-04 6.25176234217212539e-05 0
6.76843185216911575e-05 4.76065201189411122e-05 0
8.65796244840667790e-05 5.36961461325227853e-05 0
1.07609274513078182e-04 5.95340475549719736e-05 0
1.19480138274045372e-04 -6.18832030412514724e-05 0
6.76019584916315422e-05 -4.71561891041334013e-05 0
8.65178954404342832e-05 -5.31780000833298865e-05 0
1.07559793726647049e-04 -5.89404235413437425e-05 0
1.99066968318311217e-04 7.86940040902305168e-05 0
1.31986726445727526e-04 6.54403333241421696e-05 0
1.57089257539942727e-04 7.08267051342822924e-05 0
1.84083736511465212e-04 7.60215021742293199e-05 0
1.98993416574298748e-04 -7.78538123544356337e-05 0
1.31937788357842218e-04 -6.47661653095826150e-05 0
1.57032834837188539e-04 -7.00836711795022212e-05 0
1.84017005641071157e-04 -7.52168299386979589e-05 0
2.95275912644160339e-04 9.33015005420988647e-05 0
2.14556987372790947e-04 8.13129665707318562e-05 0
2.45188251385999390e-04 8.61663073980666110e-05 0
2.77535486133811623e-04 9.08763958799631310e-05 0
2.95192787620905726e-04 -9.22470405031843428e-05 0
2.14470829220763667e-04 -8.04392961404125736e-05 0
2.45113097403285832e-04 -8.52208597326296386e-05 0
2.77457594689076408e-04 -8.98572677144965712e-05 0
4.06694137244257767e-04 1.06714855595130709e-04 0
3.13472437221583181e-04 9.56948094671823928e-05 0
3.49175494246877654e-04 1.00142098008057674e-04 0
3.86416186963763964e-04 1.04474332992651766e-04 0
4.06637574690217509e-04 -1.05418345424105049e-04 0
3.13384237803169673e-04 -9.46020900756758406e-05 0
3.49090453269671180e-04 -9.89720567925180764e-05 0
3.86355083314915415e-04 -1.03222947804148827e-04 0
5.32254296203530687e-04 1.19000445553562949e-04 0
4.27406248056514532e-04 1.08921656897329009e-04 0
4.67821191464571837e-04 1.13004728838923327e-04 0
5.09638544199406325e-04 1.16962018494461993e-04 0
5.32171547301389224e-04 -1.17460150557212534e-04 0
4.27345280446912907e-04 -1.07579748859287915e-04 0
4.67735988884225638e-04 -1.11579826337031513e-04 0
5.09550326100826787e-04 -1.15459937006506775e-04 0
6.70611462763156889e-04 1.30176182184723710e-04 0
5.55255403142123466e-04 1.21003561200789161e-04 0
5.99903633130712184e-04 1.24723988061851960e-04 0
6.45881113068801993e-04 1.28326532593787788e-04 0
6.70533566908324170e-04 -1.28405031468374647e-04 0
5.55178239951683661e-04 -1.19426982394942689e-04 0
5.99828566150777467e-04 -1.23068599564340526e-04 0
6.45791833646537270e-04 -1.26591437446858937e-04 0
8.20596358006607908e-04 1.40413562480715175e-04 0
6.95696703437412691e-04 1.32004080843234903e-04 0
7.44189143649442086e-04 1.35392112744041663e-04 0
7.93889305850053388e-04 1.38700642399388333e-04 0
8.20523352981660371e-04 -1.38412377812776428e-04 0
6.95623773920029981e-04 -1.30193394557752537e-04 0
7.44121604029820884e-04 -1.33511470776133466e-04 0
7.93824134648126031e-04 -1.36743163651009345e-04 0
9.81467922680536332e-04 1.49840702113995946e-04 0
8.47601967196197391e-04 1.42102174508971363e-04 0
8.99698216595515602e-04 1.45237827048635379e-04 0
9.52934388826006339e-04 1.48276023110489516e-04 0
9.81383853560082375e-04 -1.47604467468308547e-04 0
8.47534806487429838e-04 -1.40059629188034324e-04 0
8.99626121781854507e-04 -1.43118051481541897e-04 0
9.52855466288721567e-04 -1.46082666061833497e-04 0
1.15233136726085208e-03 1.58187651291834708e-04 0
1.01031238049354636e-03 1.51367224754939041e-04 0
1.06572309434874190e-03 1.54172172221660056e-04 0
1.12216129731555086e-03 1.56843930368999224e-04 0
1.15224871675336372e-03 -1.55722306971504731e-04 0
1.01021620236220163e-03 -1.49089579840006395e-04 0
1.06564086739045923e-03 -1.51818235076893378e-04 0
1.12208100511474915e-03 -1.54414620319001178e-04 0
1.33165415064678870e-03 1.65080948846422668e-04 0
1.18276044583785268e-03 1.59489947193115083e-04 0
1.24108656493635895e-03 1.61828369491773315e-04 0
1.30017335324654742e-03 1.63997393381153832e-04 0
1.33161740480512540e-03 -1.62394092545530569e-04 0
1.18267609571526765e-03 -1.56984762573615324e-04 0
1.24101073293407332e-03 -1.59248482564414823e-04 0
1.30012789830951064e-03 -1.61349411204857223e-04 0
1.51760307531164187e-03 1.70530019705501644e-04 0
1.36334305336098635e-03 1.66122555731474314e-04 0
1.42394187435308794e-03 1.67978368062093820e-04 0
1.48511309808500879e-03 1.69683893061689143e-04 0
1.51754792199235936e-03 -1.67636570717172610e-04 0
1.36330585086367854e-03 -1.63395132496875630e-04 0
1.42388521930859576e-03 -1.65173001942843170e-04 0
1.48505289663466598e-03 -1.66817072616540858e-04 0
1.70865766777483449e-03 1.74808619731858480e-04 0
1.55024975051624493e-03 1.71341485959334173e-04 0
1.61255565439414727e-03 1.72806387139537318e-04 0
1.67537449656122127e-03 1.74154515043745730e-04 0
1.70859729929487476e-03 -1.71739057612372545e-04 0
1.55020006166465326e-03 -1.68422237421027142e-04 0
1.61250871597205846e-03 -1.69822328333704275e-04 0
1.67530852283138336e-03 -1.71103373982431562e-04 0
1.90374642422702764e-03 1.78137775763147574e-04 0
1.74206936135049657e-03 1.75443854800449832e-04 0
1.80572806521912105e-03 1.76573729076256417e-04 0
1.86978855566133622e-03 1.77621360569782350e-04 0
1.90369453980598793e-03 -1.74917405733371209e-04 0
1.74201112165485688e-03 -1.72351204137779438e-04 0
1.80567312214569334e-03 -1.73441234649905445e-04 0
1.86974026786859530e-03 -1.74436809375078740e-04 0
2.10201498236199701e-03 1.80492891169526255e-04 0
1.93777111054868937e-03 1.78616434928994416e-04 0
2.00253575884257965e-03 1.79446663891084240e-04 0
2.06759262528590816e-03 1.80160855173894707e-04 0
2.10197474348951469e-03 -1.77083035794805947e-04 0
1.93772676402255688e-03 -1.75371565853033306e-04 0
2.00249769962488298e-03 -1.76144926917489228e-04 0
2.06755696190839833e-03 -1.76793553630309660e-04 0
2.30207104188843688e-03 1.81662782149487562e-04 0
2.13650762043387718e-03 1.80782881614630249e-04 0
2.20192665356699381e-03 1.81212378231155962e-04 0
2.26746004509773740e-03 1.81533277142348484e-04 0
2.30202541013257555e-03 -1.78115177399307983e-04 0
2.13645181319360462e-03 -1.77328849779318697e-04 0
2.20186701831679528e-03 -1.77720388584225153e-04 0
2.26740840773119543e-03 -1.78008591106920336e-04 0
2.50241210485905880e-03 1.81877366744015575e-04 0
2.50238612560096767e-03 6.18192970101768955e-05 0
2.33670801255408435e-03 1.81769389860687787e-04 0
2.40234359413568979e-03 1.81870798445973582e-04 0
2.46786021177041771e-03 1.81876183727816061e-04 0
2.50241289836630829e-03 1.61147969149049851e-04 0
2.50241472671545572e-03 1.21857859302429799e-04 0
2.50239625084019155e-03 8.25466899722392876e-05 0
2.50238680408193352e-03 -5.81939758219788685e-05 0
2.50238259916477643e-03 4.11017347135459075e-05 0
2.50238597083848055e-03 1.83078184761985216e-06 0
2.50238534475513393e-03 -3.74661795359944934e-05 0
2.50241766145521119e-03 -1.78272435496285427e-04 0
2.33666561616419034e-03 -1.78188593537361535e-04 0
2.40230241548552385e-03 -1.78249823721217979e-04 0
2.46784528763461120e-03 -1.78267019850663613e-04 0
2.50239376475917341e-03 -7.89169208224509242e-05 0
2.50241160117184360e-03 -1.18207184934159839e-04 0
2.50241713132169901e-03 -1.57526145050067534e-04 0

VECTORS Force double
1.91665344935716991e-01 7.92765887889854376e-04 0
-9.07271163487165078e-01 5.96716734072760108e-04 0
-9.21095588074545724e-01 -8.57463402210766211e-07 0
7.22329667830041888e+00 -5.31583236446518930e-03 0
3.48349932374027915e+00 -2.52836509735439221e-03 0
7.61752618487382960e-02 8.74139247489587757e-04 0
-3.83215687074968003e-01 4.07230821386721079e-04 0
-3.86310342580604094e-01 -2.76805058239086544e-04 0
3.05409900656114264e+00 -3.10147605304330947e-03 0
1.47315546753318216e+00 -1.48977019623406748e-03 0
-8.12672280697193661e-01 3.36260367620711464e-03 0
-4.97854831195044534e-02 4.64726939970091883e-04 0
5.85366424016436238e-01 -2.43214517375399310e-03 0
9.34724641654659649e+00 -3.77979459946528387e-02 0
-3.39104575984563006e-01 -1.57923588637187549e-04 0
-1.95961591623910122e-02 -4.17642338701369967e-05 0
2.44165133182176308e-01 5.95984310795203001e-05 0
3.89961051331597464e+00 1.64180336204068915e-03 0
9.14548451071136803e+00 -5.14316616592544323e-02 0
9.48597404429946667e-02 -4.68389226115709968e-04 0
-1.79298750087245051e-02 5.50229653254454972e-05 0
2.52760478452154318e-02 3.02598754720403820e-05 0
3.74313723335491355e+00 3.58416554938135040e-02 0
3.93710417579922964e-02 -7.39752128914454315e-07 0
-7.86789135691832661e-03 -7.02019273689328777e-06 0
9.97841237350834132e-03 2.02216043868343741e-05 0
-8.26828313361793188e-01 3.97341455513636720e-03 0
2.67334328962218343e-02 -1.95723903298440268e-05 0
-1.76248401777793079e-02 -1.78203127430758794e-06 0
9.39895246954185193e-02 -5.26649551413326477e-04 0
-3.32265700459505708e-01 -8.70749180813034859e-03 0
1.07518929193032263e-02 -1.40565159457847453e-05 0
-7.62301390539493924e-03 -1.67054518382155672e-04 0
3.75455464578582435e-02 1.08785195162457659e-03 0
-9.39478672314863372e-01 3.15839949111567492e-04 0
9.51378702486276495e+00 -4.41411775151558175e-02 0
5.95478361837268766e-01 -2.79792230421262340e-03 0
-5.33269223585058488e-02 5.22944179766018057e-04 0
-3.71535426958231052e-01 -1.76386776823668316e-02 0
3.82157167810158471e+00 9.68159787186809589e-02 0
2.39205281049502838e-01 5.80353489722654908e-03 0
-2.16069281932204649e-02 1.99946813632691521e-04 0
4.71809546109519307e-01 1.66557350246266289e-03 0
3.60386155130274854e+00 -1.69633287100987842e-03 0
7.45780619608071405e+00 -3.47949824558136268e-03 0