# vtk DataFile Version 2.0

ASCII

DATASET UNSTRUCTURED_GRID

POINTS 157 double 

-5.00000000000000028e-02  0.00000000000000000e+00  0.00000000000000000e+00
-5.00000000000000028e-02  5.55555555555555525e-02  0.00000000000000000e+00
-5.00000000000000028e-02  9.59295359144507823e-03  0.00000000000000000e+00
-5.00000000000000028e-02  2.77777777777777762e-02  0.00000000000000000e+00
-5.00000000000000028e-02  4.59626019641104708e-02  0.00000000000000000e+00
4.99999999999999958e-02  0.00000000000000000e+00  0.00000000000000000e+00
4.99999999999999958e-02  5.55555555555555525e-02  0.00000000000000000e+00
4.99999999999999958e-02  9.59295359144507823e-03  0.00000000000000000e+00
4.99999999999999958e-02  2.77777777777777762e-02  0.00000000000000000e+00
4.99999999999999958e-02  4.59626019641104708e-02  0.00000000000000000e+00
-5.00000000000000028e-02  1.11111111111111105e-01  0.00000000000000000e+00
-5.00000000000000028e-02  6.51485091470006272e-02  0.00000000000000000e+00
-5.00000000000000028e-02  8.33333333333333287e-02  0.00000000000000000e+00
-5.00000000000000028e-02  1.01518157519666030e-01  0.00000000000000000e+00
4.99999999999999958e-02  1.11111111111111105e-01  0.00000000000000000e+00
4.99999999999999958e-02  6.51485091470006272e-02  0.00000000000000000e+00
4.99999999999999958e-02  8.33333333333333287e-02  0.00000000000000000e+00
4.99999999999999958e-02  1.01518157519666030e-01  0.00000000000000000e+00
-5.00000000000000028e-02  1.66666666666666657e-01  0.00000000000000000e+00
-5.00000000000000028e-02  1.20704064702556180e-01  0.00000000000000000e+00
-5.00000000000000028e-02  1.38888888888888895e-01  0.00000000000000000e+00
-5.00000000000000028e-02  1.57073713075221583e-01  0.00000000000000000e+00
4.99999999999999958e-02  1.66666666666666657e-01  0.00000000000000000e+00
4.99999999999999958e-02  1.20704064702556180e-01  0.00000000000000000e+00
4.99999999999999958e-02  1.38888888888888895e-01  0.00000000000000000e+00
4.99999999999999958e-02  1.57073713075221583e-01  0.00000000000000000e+00
-5.00000000000000028e-02  2.22222222222222210e-01  0.00000000000000000e+00
-5.00000000000000028e-02  1.76259620258111732e-01  0.00000000000000000e+00
-5.00000000000000028e-02  1.94444444444444420e-01  0.00000000000000000e+00
-5.00000000000000028e-02  2.12629268630777135e-01  0.00000000000000000e+00
4.99999999999999958e-02  2.22222222222222210e-01  0.00000000000000000e+00
4.99999999999999958e-02  1.76259620258111732e-01  0.00000000000000000e+00
4.99999999999999958e-02  1.94444444444444420e-01  0.00000000000000000e+00
4.99999999999999958e-02  2.12629268630777135e-01  0.00000000000000000e+00
-5.00000000000000028e-02  2.77777777777777790e-01  0.00000000000000000e+00
-5.00000000000000028e-02  2.31815175813667285e-01  0.00000000000000000e+00
-5.00000000000000028e-02  2.50000000000000000e-01  0.00000000000000000e+00
-5.00000000000000028e-02  2.68184824186332715e-01  0.00000000000000000e+00
4.99999999999999958e-02  2.77777777777777790e-01  0.00000000000000000e+00
4.99999999999999958e-02  2.31815175813667285e-01  0.00000000000000000e+00
4.99999999999999958e-02  2.50000000000000000e-01  0.00000000000000000e+00
4.99999999999999958e-02  2.68184824186332715e-01  0.00000000000000000e+00
-5.00000000000000028e-02  3.33333333333333315e-01  0.00000000000000000e+00
-5.00000000000000028e-02  2.87370731369222865e-01  0.00000000000000000e+00
-5.00000000000000028e-02  3.05555555555555580e-01  0.00000000000000000e+00
-5.00000000000000028e-02  3.23740379741888240e-01  0.00000000000000000e+00
4.99999999999999958e-02  3.33333333333333315e-01  0.00000000000000000e+00
4.99999999999999958e-02  2.87370731369222865e-01  0.00000000000000000e+00
4.99999999999999958e-02  3.05555555555555580e-01  0.00000000000000000e+00
4.99999999999999958e-02  3.23740379741888240e-01  0.00000000000000000e+00
-5.00000000000000028e-02  3.88888888888888840e-01  0.00000000000000000e+00
-5.00000000000000028e-02  3.42926286924778334e-01  0.00000000000000000e+00
-5.00000000000000028e-02  3.61111111111111049e-01  0.00000000000000000e+00
-5.00000000000000028e-02  3.79295935297443765e-01  0.00000000000000000e+00
4.99999999999999958e-02  3.88888888888888840e-01  0.00000000000000000e+00
4.99999999999999958e-02  3.42926286924778334e-01  0.00000000000000000e+00
4.99999999999999958e-02  3.61111111111111049e-01  0.00000000000000000e+00
4.99999999999999958e-02  3.79295935297443765e-01  0.00000000000000000e+00
-5.00000000000000028e-02  4.44444444444444420e-01  0.00000000000000000e+00
-5.00000000000000028e-02  3.98481842480333914e-01  0.00000000000000000e+00
-5.00000000000000028e-02  4.16666666666666630e-01  0.00000000000000000e+00
-5.00000000000000028e-02  4.34851490852999345e-01  0.00000000000000000e+00
4.99999999999999958e-02  4.44444444444444420e-01  0.00000000000000000e+00
4.99999999999999958e-02  3.98481842480333914e-01  0.00000000000000000e+00
4.99999999999999958e-02  4.16666666666666630e-01  0.00000000000000000e+00
4.99999999999999958e-02  4.34851490852999345e-01  0.00000000000000000e+00
-5.00000000000000028e-02  5.00000000000000000e-01  0.00000000000000000e+00
-5.00000000000000028e-02  4.54037398035889495e-01  0.00000000000000000e+00
-5.00000000000000028e-02  4.72222222222222210e-01  0.00000000000000000e+00
-5.00000000000000028e-02  4.90407046408554925e-01  0.00000000000000000e+00
4.99999999999999958e-02  5.00000000000000000e-01  0.00000000000000000e+00
4.99999999999999958e-02  4.54037398035889495e-01  0.00000000000000000e+00
4.99999999999999958e-02  4.72222222222222210e-01  0.00000000000000000e+00
4.99999999999999958e-02  4.90407046408554925e-01  0.00000000000000000e+00
-5.00000000000000028e-02  5.55555555555555580e-01  0.00000000000000000e+00
-5.00000000000000028e-02  5.09592953591445075e-01  0.00000000000000000e+00
-5.00000000000000028e-02  5.27777777777777790e-01  0.00000000000000000e+00
-5.00000000000000028e-02  5.45962601964110505e-01  0.00000000000000000e+00
4.99999999999999958e-02  5.55555555555555580e-01  0.00000000000000000e+00
4.99999999999999958e-02  5.09592953591445075e-01  0.00000000000000000e+00
4.99999999999999958e-02  5.27777777777777790e-01  0.00000000000000000e+00
4.99999999999999958e-02  5.45962601964110505e-01  0.00000000000000000e+00
-5.00000000000000028e-02  6.11111111111111049e-01  0.00000000000000000e+00
-5.00000000000000028e-02  5.65148509147000655e-01  0.00000000000000000e+00
-5.00000000000000028e-02  5.83333333333333259e-01  0.00000000000000000e+00
-5.00000000000000028e-02  6.01518157519665975e-01  0.00000000000000000e+00
4.99999999999999958e-02  6.11111111111111049e-01  0.00000000000000000e+00
4.99999999999999958e-02  5.65148509147000655e-01  0.00000000000000000e+00
4.99999999999999958e-02  5.83333333333333259e-01  0.00000000000000000e+00
4.99999999999999958e-02  6.01518157519665975e-01  0.00000000000000000e+00
-5.00000000000000028e-02  6.66666666666666630e-01  0.00000000000000000e+00
-5.00000000000000028e-02  6.20704064702556013e-01  0.00000000000000000e+00
-5.00000000000000028e-02  6.38888888888888840e-01  0.00000000000000000e+00
-5.00000000000000028e-02  6.57073713075221555e-01  0.00000000000000000e+00
4.99999999999999958e-02  6.66666666666666630e-01  0.00000000000000000e+00
4.99999999999999958e-02  6.20704064702556013e-01  0.00000000000000000e+00
4.99999999999999958e-02  6.38888888888888840e-01  0.00000000000000000e+00
4.99999999999999958e-02  6.57073713075221555e-01  0.00000000000000000e+00
-5.00000000000000028e-02  7.22222222222222210e-01  0.00000000000000000e+00
-5.00000000000000028e-02  6.76259620258111704e-01  0.00000000000000000e+00
-5.00000000000000028e-02  6.94444444444444420e-01  0.00000000000000000e+00
-5.00000000000000028e-02  7.12629268630777135e-01  0.00000000000000000e+00
4.99999999999999958e-02  7.22222222222222210e-01  0.00000000000000000e+00
4.99999999999999958e-02  6.76259620258111704e-01  0.00000000000000000e+00
4.99999999999999958e-02  6.94444444444444420e-01  0.00000000000000000e+00
4.99999999999999958e-02  7.12629268630777135e-01  0.00000000000000000e+00
-5.00000000000000028e-02  7.77777777777777679e-01  0.00000000000000000e+00
-5.00000000000000028e-02  7.31815175813667174e-01  0.00000000000000000e+00
-5.00000000000000028e-02  7.50000000000000000e-01  0.00000000000000000e+00
-5.00000000000000028e-02  7.68184824186332604e-01  0.00000000000000000e+00
4.99999999999999958e-02  7.77777777777777679e-01  0.00000000000000000e+00
4.99999999999999958e-02  7.31815175813667174e-01  0.00000000000000000e+00
4.99999999999999958e-02  7.50000000000000000e-01  0.00000000000000000e+00
4.99999999999999958e-02  7.68184824186332604e-01  0.00000000000000000e+00
-5.00000000000000028e-02  8.33333333333333259e-01  0.00000000000000000e+00
-5.00000000000000028e-02  7.87370731369222754e-01  0.00000000000000000e+00
-5.00000000000000028e-02  8.05555555555555469e-01  0.00000000000000000e+00
-5.00000000000000028e-02  8.23740379741888185e-01  0.00000000000000000e+00
4.99999999999999958e-02  8.33333333333333259e-01  0.00000000000000000e+00
4.99999999999999958e-02  7.87370731369222754e-01  0.00000000000000000e+00
4.99999999999999958e-02  8.05555555555555469e-01  0.00000000000000000e+00
4.99999999999999958e-02  8.23740379741888185e-01  0.00000000000000000e+00
-5.00000000000000028e-02  8.88888888888888840e-01  0.00000000000000000e+00
-5.00000000000000028e-02  8.42926286924778334e-01  0.00000000000000000e+00
-5.00000000000000028e-02  8.61111111111111049e-01  0.00000000000000000e+00
-5.00000000000000028e-02  8.79295935297443765e-01  0.00000000000000000e+00
4.99999999999999958e-02  8.88888888888888840e-01  0.00000000000000000e+00
4.99999999999999958e-02  8.42926286924778334e-01  0.00000000000000000e+00
4.99999999999999958e-02  8.61111111111111049e-01  0.00000000000000000e+00
4.99999999999999958e-02  8.79295935297443765e-01  0.00000000000000000e+00
-5.00000000000000028e-02  9.44444444444444420e-01  0.00000000000000000e+00
-5.00000000000000028e-02  8.98481842480333914e-01  0.00000000000000000e+00
-5.00000000000000028e-02  9.16666666666666630e-01  0.00000000000000000e+00
-5.00000000000000028e-02  9.34851490852999345e-01  0.00000000000000000e+00
4.99999999999999958e-02  9.44444444444444420e-01  0.00000000000000000e+00
4.99999999999999958e-02  8.98481842480333914e-01  0.00000000000000000e+00
4.99999999999999958e-02  9.16666666666666630e-01  0.00000000000000000e+00
4.99999999999999958e-02  9.34851490852999345e-01  0.00000000000000000e+00
-5.00000000000000028e-02  1.00000000000000000e+00  0.00000000000000000e+00
-1.66666666666666699e-02  1.00000000000000000e+00  0.00000000000000000e+00
-5.00000000000000028e-02  9.54037398035889495e-01  0.00000000000000000e+00
-5.00000000000000028e-02  9.72222222222222210e-01  0.00000000000000000e+00
-5.00000000000000028e-02  9.90407046408554925e-01  0.00000000000000000e+00
-4.42442278451329538e-02  1.00000000000000000e+00  0.00000000000000000e+00
-3.33333333333333398e-02  1.00000000000000000e+00  0.00000000000000000e+00
-2.24224388215337189e-02  1.00000000000000000e+00  0.00000000000000000e+00
1.66666666666666630e-02  1.00000000000000000e+00  0.00000000000000000e+00
-1.09108945117996226e-02  1.00000000000000000e+00  0.00000000000000000e+00
-3.46944695195361419e-18  1.00000000000000000e+00  0.00000000000000000e+00
1.09108945117996139e-02  1.00000000000000000e+00  0.00000000000000000e+00
4.99999999999999958e-02  1.00000000000000000e+00  0.00000000000000000e+00
4.99999999999999958e-02  9.54037398035889495e-01  0.00000000000000000e+00
4.99999999999999958e-02  9.72222222222222210e-01  0.00000000000000000e+00
4.99999999999999958e-02  9.90407046408554925e-01  0.00000000000000000e+00
2.24224388215337120e-02  1.00000000000000000e+00  0.00000000000000000e+00
3.33333333333333259e-02  1.00000000000000000e+00  0.00000000000000000e+00
4.42442278451329468e-02  1.00000000000000000e+00  0.00000000000000000e+00

CELLS 0 0


CELL_TYPES 0


POINT_DATA 157

VECTORS VertexNormals double

0.00000000000000000e+00 0.00000000000000000e+00 0
0.00000000000000000e+00 0.00000000000000000e+00 0
0.00000000000000000e+00 0.00000000000000000e+00 0
0.00000000000000000e+00 0.00000000000000000e+00 0
0.00000000000000000e+00 0.00000000000000000e+00 0
0.00000000000000000e+00 0.00000000000000000e+00 0
0.00000000000000000e+00 0.00000000000000000e+00 0
0.00000000000000000e+00 0.00000000000000000e+00 0
0.00000000000000000e+00 0.00000000000000000e+00 0
0.00000000000000000e+00 0.00000000000000000e+00 0
0.00000000000000000e+00 0.00000000000000000e+00 0
0.00000000000000000e+00 0.00000000000000000e+00 0
0.00000000000000000e+00 0.00000000000000000e+00 0
0.00000000000000000e+00 0.00000000000000000e+00 0
0.00000000000000000e+00 0.00000000000000000e+00 0
0.00000000000000000e+00 0.00000000000000000e+00 0
0.00000000000000000e+00 0.00000000000000000e+00 0
0.00000000000000000e+00 0.00000000000000000e+00 0
0.00000000000000000e+00 0.00000000000000000e+00 0
0.00000000000000000e+00 0.00000000000000000e+00 0
0.00000000000000000e+00 0.00000000000000000e+00 0
0.00000000000000000e+00 0.00000000000000000e+00 0
0.00000000000000000e+00 0.00000000000000000e+00 0
0.00000000000000000e+00 0.00000000000000000e+00 0
0.00000000000000000e+00 0.00000000000000000e+00 0
0.00000000000000000e+00 0.00000000000000000e+00 0
0.00000000000000000e+00 0.00000000000000000e+00 0
0.00000000000000000e+00 0.00000000000000000e+00 0
0.00000000000000000e+00 0.00000000000000000e+00 0
0.00000000000000000e+00 0.00000000000000000e+00 0
0.00000000000000000e+00 0.00000000000000000e+00 0
0.00000000000000000e+00 0.00000000000000000e+00 0
0.00000000000000000e+00 0.00000000000000000e+00 0
0.00000000000000000e+00 0.00000000000000000e+00 0
0.00000000000000000e+00 0.00000000000000000e+00 0
0.00000000000000000e+00 0.00000000000000000e+00 0
0.00000000000000000e+00 0.00000000000000000e+00 0
0.00000000000000000e+00 0.00000000000000000e+00 0
0.00000000000000000e+00 0.00000000000000000e+00 0
0.00000000000000000e+00 0.00000000000000000e+00 0
0.00000000000000000e+00 0.00000000000000000e+00 0
0.00000000000000000e+00 0.00000000000000000e+00 0
0.00000000000000000e+00 0.00000000000000000e+00 0
0.00000000000000000e+00 0.00000000000000000e+00 0
0.00000000000000000e+00 0.00000000000000000e+00 0
0.00000000000000000e+00 0.00000000000000000e+00 0
0.00000000000000000e+00 0.00000000000000000e+00 0
0.00000000000000000e+00 0.00000000000000000e+00 0
0.00000000000000000e+00 0.00000000000000000e+00 0
0.00000000000000000e+00 0.00000000000000000e+00 0
0.00000000000000000e+00 0.00000000000000000e+00 0
0.00000000000000000e+00 0.00000000000000000e+00 0
0.00000000000000000e+00 0.00000000000000000e+00 0
0.00000000000000000e+00 0.00000000000000000e+00 0
0.00000000000000000e+00 0.00000000000000000e+00 0
0.00000000000000000e+00 0.00000000000000000e+00 0
0.00000000000000000e+00 0.00000000000000000e+00 0
0.00000000000000000e+00 0.00000000000000000e+00 0
0.00000000000000000e+00 0.00000000000000000e+00 0
0.00000000000000000e+00 0.00000000000000000e+00 0
0.00000000000000000e+00 0.00000000000000000e+00 0
0.00000000000000000e+00 0.00000000000000000e+00 0
0.00000000000000000e+00 0.00000000000000000e+00 0
0.00000000000000000e+00 0.00000000000000000e+00 0
0.00000000000000000e+00 0.00000000000000000e+00 0
0.00000000000000000e+00 0.00000000000000000e+00 0
0.00000000000000000e+00 0.00000000000000000e+00 0
0.00000000000000000e+00 0.00000000000000000e+00 0
0.00000000000000000e+00 0.00000000000000000e+00 0
0.00000000000000000e+00 0.00000000000000000e+00 0
0.00000000000000000e+00 0.00000000000000000e+00 0
0.00000000000000000e+00 0.00000000000000000e+00 0
0.00000000000000000e+00 0.00000000000000000e+00 0
0.00000000000000000e+00 0.00000000000000000e+00 0
0.00000000000000000e+00 0.00000000000000000e+00 0
0.00000000000000000e+00 0.00000000000000000e+00 0
0.00000000000000000e+00 0.00000000000000000e+00 0
0.00000000000000000e+00 0.00000000000000000e+00 0
0.00000000000000000e+00 0.00000000000000000e+00 0
0.00000000000000000e+00 0.00000000000000000e+00 0
0.00000000000000000e+00 0.00000000000000000e+00 0
0.00000000000000000e+00 0.00000000000000000e+00 0
0.00000000000000000e+00 0.00000000000000000e+00 0
0.00000000000000000e+00 0.00000000000000000e+00 0
0.00000000000000000e+00 0.00000000000000000e+00 0
0.00000000000000000e+00 0.00000000000000000e+00 0
0.00000000000000000e+00 0.00000000000000000e+00 0
0.00000000000000000e+00 0.00000000000000000e+00 0
0.00000000000000000e+00 0.00000000000000000e+00 0
0.00000000000000000e+00 0.00000000000000000e+00 0
0.00000000000000000e+00 0.00000000000000000e+00 0
0.00000000000000000e+00 0.00000000000000000e+00 0
0.00000000000000000e+00 0.00000000000000000e+00 0
0.00000000000000000e+00 0.00000000000000000e+00 0
0.00000000000000000e+00 0.00000000000000000e+00 0
0.00000000000000000e+00 0.00000000000000000e+00 0
0.00000000000000000e+00 0.00000000000000000e+00 0
0.00000000000000000e+00 0.00000000000000000e+00 0
0.00000000000000000e+00 0.00000000000000000e+00 0
0.00000000000000000e+00 0.00000000000000000e+00 0
0.00000000000000000e+00 0.00000000000000000e+00 0
0.00000000000000000e+00 0.00000000000000000e+00 0
0.00000000000000000e+00 0.00000000000000000e+00 0
0.00000000000000000e+00 0.00000000000000000e+00 0
0.00000000000000000e+00 0.00000000000000000e+00 0
0.00000000000000000e+00 0.00000000000000000e+00 0
0.00000000000000000e+00 0.00000000000000000e+00 0
0.00000000000000000e+00 0.00000000000000000e+00 0
0.00000000000000000e+00 0.00000000000000000e+00 0
0.00000000000000000e+00 0.00000000000000000e+00 0
0.00000000000000000e+00 0.00000000000000000e+00 0
0.00000000000000000e+00 0.00000000000000000e+00 0
0.00000000000000000e+00 0.00000000000000000e+00 0
0.00000000000000000e+00 0.00000000000000000e+00 0
0.00000000000000000e+00 0.00000000000000000e+00 0
0.00000000000000000e+00 0.00000000000000000e+00 0
0.00000000000000000e+00 0.00000000000000000e+00 0
0.00000000000000000e+00 0.00000000000000000e+00 0
0.00000000000000000e+00 0.00000000000000000e+00 0
0.00000000000000000e+00 0.00000000000000000e+00 0
0.00000000000000000e+00 0.00000000000000000e+00 0
0.00000000000000000e+00 0.00000000000000000e+00 0
0.00000000000000000e+00 0.00000000000000000e+00 0
0.00000000000000000e+00 0.00000000000000000e+00 0
0.00000000000000000e+00 0.00000000000000000e+00 0
0.00000000000000000e+00 0.00000000000000000e+00 0
0.00000000000000000e+00 0.00000000000000000e+00 0
0.00000000000000000e+00 0.00000000000000000e+00 0
0.00000000000000000e+00 0.00000000000000000e+00 0
0.00000000000000000e+00 0.00000000000000000e+00 0
0.00000000000000000e+00 0.00000000000000000e+00 0
0.00000000000000000e+00 0.00000000000000000e+00 0
0.00000000000000000e+00 0.00000000000000000e+00 0
0.00000000000000000e+00 0.00000000000000000e+00 0
0.00000000000000000e+00 0.00000000000000000e+00 0
0.00000000000000000e+00 0.00000000000000000e+00 0
0.00000000000000000e+00 0.00000000000000000e+00 0
0.00000000000000000e+00 0.00000000000000000e+00 0
0.00000000000000000e+00 0.00000000000000000e+00 0
0.00000000000000000e+00 0.00000000000000000e+00 0
0.00000000000000000e+00 0.00000000000000000e+00 0
0.00000000000000000e+00 0.00000000000000000e+00 0
0.00000000000000000e+00 0.00000000000000000e+00 0
0.00000000000000000e+00 0.00000000000000000e+00 0
0.00000000000000000e+00 0.00000000000000000e+00 0
0.00000000000000000e+00 0.00000000000000000e+00 0
0.00000000000000000e+00 0.00000000000000000e+00 0
0.00000000000000000e+00 0.00000000000000000e+00 0
0.00000000000000000e+00 0.00000000000000000e+00 0
0.00000000000000000e+00 0.00000000000000000e+00 0
0.00000000000000000e+00 0.00000000000000000e+00 0
0.00000000000000000e+00 0.00000000000000000e+00 0
0.00000000000000000e+00 0.00000000000000000e+00 0
0.00000000000000000e+00 0.00000000000000000e+00 0
0.00000000000000000e+00 0.00000000000000000e+00 0
0.00000000000000000e+00 0.00000000000000000e+00 0
0.00000000000000000e+00 0.00000000000000000e+00 0

VECTORS Displacement double
0.00000000000000000e+00 0.00000000000000000e+00 0
1.61030921848046521e-05 1.88331264283575333e-05 0
2.81731458187440393e-06 3.92232711321418595e-06 0
6.82371467464371546e-06 9.98438318567954484e-06 0
1.24083747484807996e-05 1.58692160851954048e-05 0
0.00000000000000000e+00 0.00000000000000000e+00 0
1.61934009672276203e-05 -1.90442783598800874e-05 0
2.83646649994799503e-06 -3.96030048344885056e-06 0
6.84869709822704170e-06 -1.00982575285677412e-05 0
1.24774218993611512e-05 -1.60542623509249564e-05 0
4.82667362179104150e-05 3.44421836478929133e-05 0
2.04373366701368181e-05 2.17460596696152146e-05 0
3.00868466198033831e-05 2.70162944506119847e-05 0
4.15662061010711341e-05 3.19519194542303424e-05 0
4.83349876492292276e-05 -3.48360952482394001e-05 0
2.05363153202146761e-05 -2.19826009649515296e-05 0
3.01758071572820472e-05 -2.73030655706212417e-05 0
4.16265212880519812e-05 -3.23055272895116853e-05 0
9.59570057681514218e-05 4.75601500648253922e-05 0
5.54520835119292143e-05 3.68667162524936786e-05 0
7.02980021449439279e-05 4.12814667528468016e-05 0
8.67005209868786043e-05 4.54574044840871293e-05 0
9.60208473492589883e-05 -4.81497514321399368e-05 0
5.55216639719413718e-05 -3.72968279350383345e-05 0
7.03750489191882155e-05 -4.17751842486300509e-05 0
8.67756620860775949e-05 -4.60110188192264612e-05 0
1.56802560496997442e-04 5.87643307135880610e-05 0
1.05557089233141607e-04 4.96054897217080272e-05 0
1.24822828968528389e-04 5.33586307706672110e-05 0
1.45422244917578248e-04 5.69416722599599620e-05 0
1.56873656679240933e-04 -5.95382719654260757e-05 0
1.05634146560632268e-04 -5.02308205447576272e-05 0
1.24904706132773871e-04 -5.40420608795483867e-05 0
1.45496891686731672e-04 -5.76837672685066538e-05 0
2.29215657564741705e-04 6.84641656014758920e-05 0
1.68544477359155504e-04 6.05349385286690675e-05 0
1.91648076887741500e-04 6.37841300313272020e-05 0
2.15939768163327225e-04 6.68922808104819189e-05 0
2.29277288940059006e-04 -6.93935206807645813e-05 0
1.68602875546479457e-04 -6.13438839801991786e-05 0
1.91722014950554837e-04 -6.46490402320012671e-05 0
2.16010699907530736e-04 -6.77992330243574115e-05 0
3.11614281285832776e-04 7.66689400143392139e-05 0
2.42800473764058169e-04 6.99869661004245307e-05 0
2.69310452071790953e-04 7.27365817378783445e-05 0
2.96746813833941774e-04 7.53449575997547838e-05 0
3.11664776399252577e-04 -7.77177167367439450e-05 0
2.42846924095397438e-04 -7.09397262893528573e-05 0
2.69344407336161845e-04 -7.37386244828680635e-05 0
2.96798268599233106e-04 -7.63829027824490997e-05 0
4.02331218321435550e-04 8.34207127234842051e-05 0
3.26738182200535883e-04 7.79492400158155537e-05 0
3.56089859759386594e-04 8.02352127358967493e-05 0
3.86177287546718830e-04 8.23526890973361186e-05 0
4.02359210713452520e-04 -8.45482972868978892e-05 0
3.26783514237604029e-04 -7.90073164889560931e-05 0
3.56105839664136187e-04 -8.13185880595595670e-05 0
3.86195121837891973e-04 -8.34686011717899692e-05 0
4.99656150424613536e-04 8.89623321093393034e-05 0
4.18691124807643719e-04 8.44569327459218606e-05 0
4.50241625207246422e-04 8.63356181605734620e-05 0
4.82457422319736791e-04 8.80867450639713582e-05 0
4.99667993093498141e-04 -9.01356125616492083e-05 0
4.18723566597601867e-04 -8.55925075135804671e-05 0
4.50268021224096841e-04 -8.74788677290408613e-05 0
4.82459264330073370e-04 -8.92455902946544689e-05 0
6.02544150147341171e-04 9.35637431228358212e-05 0
5.17036086078982498e-04 8.98201202409573316e-05 0
5.50424834527134667e-04 9.13804356272800806e-05 0
5.84393026045981127e-04 9.28434878873294055e-05 0
6.02542911038246327e-04 -9.47807012173550797e-05 0
5.17049070960068228e-04 -9.10027392047165965e-05 0
5.50442111597144448e-04 -9.25767248154474916e-05 0
5.84404927180537923e-04 -9.40505935757063506e-05 0
7.10064865849345072e-04 9.71435102210737255e-05 0
6.20787891814792944e-04 9.42520491176337120e-05 0
6.55768410559143039e-04 9.54889036675026756e-05 0
6.91208784439000965e-04 9.66065590764109562e-05 0
7.10082231182008550e-04 -9.84025970020819499e-05 0
6.20800870840616760e-04 -9.54814204294203119e-05 0
6.55789236541751619e-04 -9.67299239452334069e-05 0
6.91226804604793354e-04 -9.78590807659911844e-05 0
8.20918293631927166e-04 9.95861959853785929e-05 0
7.29037369647608400e-04 9.76371098576745935e-05 0
7.65164146251627706e-04 9.84858295390844945e-05 0
8.01592089561021202e-04 9.92361213501837772e-05 0
8.20940929661822822e-04 -1.00873227731175519e-04 0
7.29043782106193468e-04 -9.89053449446828460e-05 0
7.65191658311269239e-04 -9.97703347220427417e-05 0
8.01622017543644262e-04 -1.00522839207642083e-04 0
9.33734771010065663e-04 1.01091335014140288e-04 0
8.40314047705862906e-04 9.99049397824087917e-05 0
8.77190909643172983e-04 1.00420736319434628e-04 0
9.14161402862812044e-04 1.00868805146923197e-04 0
9.33747024166707118e-04 -1.02383452569629462e-04 0
8.40322898883031494e-04 -1.01191940568087324e-04 0
8.77187238930965049e-04 -1.01717010614090284e-04 0
9.14174790466417602e-04 -1.02168867786878680e-04 0
1.04768147926146901e-03 1.02056202459146683e-04 0
9.53349529552864269e-04 1.01299652592683838e-04 0
9.90647987505324139e-04 1.01638722888777570e-04 0
1.02797640740352313e-03 1.01915086988721147e-04 0
1.04766290068810958e-03 -1.03314176408947543e-04 0
9.53356521498114262e-04 -1.02580384892671795e-04 0
9.90623175975301326e-04 -1.02901031814347756e-04 0
1.02794878086768767e-03 -1.03176470720096043e-04 0
1.16233267478759892e-03 1.02836122232013847e-04 0
1.06741770636559576e-03 1.02198123830217971e-04 0
1.10491271622693192e-03 1.02469622412279889e-04 0
1.14251128953499117e-03 1.02719434091692039e-04 0
1.16230093022988900e-03 -1.04034431848038720e-04 0
1.06740337317906336e-03 -1.03447397930197122e-04 0
1.10489559498434982e-03 -1.03688656542812643e-04 0
1.14247087200847501e-03 -1.03914090620556003e-04 0
1.27777360784790727e-03 1.03600218786788014e-04 0
1.18219207352341813e-03 1.02964720831853204e-04 0
1.21991018580741139e-03 1.03218631105463123e-04 0
1.25775066779701861e-03 1.03475158717320666e-04 0
1.27774537690823861e-03 -1.04742523017614062e-04 0
1.18216293718390844e-03 -1.04159738008618454e-04 0
1.21989097350906259e-03 -1.04399672581970154e-04 0
1.25773304825193568e-03 -1.04631662757544519e-04 0
1.39405894657009368e-03 1.04207262162894312e-04 0
1.29777578415093378e-03 1.03711158732279420e-04 0
1.33579440119047511e-03 1.03927663065990958e-04 0
1.37391711624746207e-03 1.04120019202590919e-04 0
1.39404061916658436e-03 -1.05258574758179595e-04 0
1.29776017636065678e-03 -1.04850736039663789e-04 0
1.33578614910878808e-03 -1.05039489514465131e-04 0
1.37390266173929745e-03 -1.05194271126056023e-04 0
1.51078718637529387e-03 1.04447809649110246e-04 0
1.41423542512241342e-03 1.04275849579861662e-04 0
1.45241196663208993e-03 1.04353641884048201e-04 0
1.49061680878661141e-03 1.04418774747935852e-04 0
1.51076834790346754e-03 -1.05430290953295133e-04 0
1.41420097039258248e-03 -1.05302478815035570e-04 0
1.45238093273798762e-03 -1.05372896693306433e-04 0
1.49059466654323253e-03 -1.05419944552889207e-04 0
1.62746155270339756e-03 1.04439870874284600e-04 0
1.62746999139665735e-03 3.45026004698901492e-05 0
1.53097538930714312e-03 1.04473549881160422e-04 0
1.56921513313330527e-03 1.04476802945591479e-04 0
1.60734833003531091e-03 1.04443672533753462e-04 0
1.62746462683281256e-03 9.23739007866899000e-05 0
1.62747938051626176e-03 6.95015867281434304e-05 0
1.62747557561195998e-03 4.65881871310686450e-05 0
1.62744687032777410e-03 -3.54651466292009416e-05 0
1.62746801718188501e-03 2.24244190995185619e-05 0
1.62746811001853050e-03 -4.68975578832123534e-07 0
1.62745526620570341e-03 -2.33832855759223521e-05 0
1.62743627136275422e-03 -1.05391749112328139e-04 0
1.53095410860609846e-03 -1.05427967626760163e-04 0
1.56917226979679122e-03 -1.05400063852558183e-04 0
1.60730682903252185e-03 -1.05387504584511461e-04 0
1.62744320590199132e-03 -4.75374529985859919e-05 0
1.62744355628055928e-03 -7.04155168752847833e-05 0
1.62743753686867064e-03 -9.33099121147053630e-05 0

VECTORS Force double
1.85162639438449933e-01 8.10204474222273236e-04 0
-8.77132019565637355e-01 5.75877829841051590e-04 0
-8.91268249797409484e-01 -2.39225869850432800e-05 0
6.99025287833207987e+00 -5.16108843741217710e-03 0
3.37088213013064086e+00 -2.45398875622046325e-03 0
8.48310059786707704e-02 8.91712468197451312e-04 0
-4.22624211123885096e-01 3.80057242053326110e-04 0
-4.26951296963384297e-01 -3.06258342058623458e-04 0
3.37061792389791481e+00 -2.90598305518250267e-03 0
1.62568706809865304e+00 -1.39315539323413588e-03 0
-7.84631938326653011e-01 3.24803228323073626e-03 0
-4.92082174981637310e-02 4.46053046342834104e-04 0
5.66762097165299461e-01 -2.34951745786023906e-03 0
9.04541764108759594e+00 -3.65391473853049487e-02 0
-3.73482445380220851e-01 -2.21552906115319789e-04 0
-2.23147985644317655e-02 -5.37524772425979216e-05 0
2.69724560405027625e-01 1.05746194549340871e-04 0
4.30530877430320835e+00 2.34829169101787721e-03 0
8.85020751800554528e+00 -4.91623597556858152e-02 0
9.05182645819532644e-02 -4.56188498969534856e-04 0
-1.73109552236085928e-02 5.50975603103889992e-05 0
2.57169936623249801e-02 3.41753407928123767e-05 0
4.13274665384828133e+00 3.89411427881969016e-02 0
4.28879434057780132e-02 6.64030216163291602e-06 0
-8.60715028356328661e-03 -4.60481734762248015e-06 0
1.16323047211887819e-02 2.31906092089036197e-05 0
-7.98944702486722891e-01 3.66689761897945592e-03 0
2.74069003750279684e-02 -1.62307481289366952e-05 0
-1.66650150117403084e-02 -6.90131592720989663e-06 0
8.96879167066554350e-02 -4.92173058010726585e-04 0
-3.66199322022966456e-01 -9.36762780594445864e-03 0
1.26678690514824312e-02 -1.03700190900017578e-05 0
-8.09951588548524920e-03 -1.75344807608040061e-04 0
4.09296698225982344e-02 1.16554207192344126e-03 0
-9.09206617300063136e-01 -1.38236186577391147e-04 0
9.21163409323728644e+00 -4.07776510421795149e-02 0
5.76834799598734516e-01 -2.59100510706293920e-03 0
-5.21938605742722286e-02 5.19906045252906774e-04 0
-4.09931525744690051e-01 -1.88660020488137306e-02 0
4.22045828072197882e+00 1.04073869313888540e-01 0
2.64306906094970762e-01 6.23869222412229592e-03 0
-2.41757597656996927e-02 2.09057829095693156e-04 0
4.56244840232886695e-01 1.93760318706419615e-03 0
3.49099693595529148e+00 2.82589046810154068e-06 0
7.22465604883659474e+00 2.92620411154316892e-05 0