# vtk DataFile Version 2.0

ASCII

DATASET UNSTRUCTURED_GRID

POINTS 157 double 

-5.00000000000000028e-02  0.00000000000000000e+00  0.00000000000000000e+00
-5.00000000000000028e-02  5.55555555555555525e-02  0.00000000000000000e+00
-5.00000000000000028e-02  9.59295359144507823e-03  0.00000000000000000e+00
-5.00000000000000028e-02  2.77777777777777762e-02  0.00000000000000000e+00
-5.00000000000000028e-02  4.59626019641104708e-02  0.00000000000000000e+00
4.99999999999999958e-02  0.00000000000000000e+00  0.00000000000000000e+00
4.99999999999999958e-02  5.55555555555555525e-02  0.00000000000000000e+00
4.99999999999999958e-02  9.59295359144507823e-03  0.00000000000000000e+00
4.99999999999999958e-02  2.77777777777777762e-02  0.00000000000000000e+00
4.99999999999999958e-02  4.59626019641104708e-02  0.00000000000000000e+00
-5.00000000000000028e-02  1.11111111111111105e-01  0.00000000000000000e+00
-5.00000000000000028e-02  6.51485091470006272e-02  0.00000000000000000e+00
-5.00000000000000028e-02  8.33333333333333287e-02  0.00000000000000000e+00
-5.00000000000000028e-02  1.01518157519666030e-01  0.00000000000000000e+00
4.99999999999999958e-02  1.11111111111111105e-01  0.00000000000000000e+00
4.99999999999999958e-02  6.51485091470006272e-02  0.00000000000000000e+00
4.99999999999999958e-02  8.33333333333333287e-02  0.00000000000000000e+00
4.99999999999999958e-02  1.01518157519666030e-01  0.00000000000000000e+00
-5.00000000000000028e-02  1.66666666666666657e-01  0.00000000000000000e+00
-5.00000000000000028e-02  1.20704064702556180e-01  0.00000000000000000e+00
-5.00000000000000028e-02  1.38888888888888895e-01  0.00000000000000000e+00
-5.00000000000000028e-02  1.57073713075221583e-01  0.00000000000000000e+00
4.99999999999999958e-02  1.66666666666666657e-01  0.00000000000000000e+00
4.99999999999999958e-02  1.20704064702556180e-01  0.00000000000000000e+00
4.99999999999999958e-02  1.38888888888888895e-01  0.00000000000000000e+00
4.99999999999999958e-02  1.57073713075221583e-01  0.00000000000000000e+00
-5.00000000000000028e-02  2.22222222222222210e-01  0.00000000000000000e+00
-5.00000000000000028e-02  1.76259620258111732e-01  0.00000000000000000e+00
-5.00000000000000028e-02  1.94444444444444420e-01  0.00000000000000000e+00
-5.00000000000000028e-02  2.12629268630777135e-01  0.00000000000000000e+00
4.99999999999999958e-02  2.22222222222222210e-01  0.00000000000000000e+00
4.99999999999999958e-02  1.76259620258111732e-01  0.00000000000000000e+00
4.99999999999999958e-02  1.94444444444444420e-01  0.00000000000000000e+00
4.99999999999999958e-02  2.12629268630777135e-01  0.00000000000000000e+00
-5.00000000000000028e-02  2.77777777777777790e-01  0.00000000000000000e+00
-5.00000000000000028e-02  2.31815175813667285e-01  0.00000000000000000e+00
-5.00000000000000028e-02  2.50000000000000000e-01  0.00000000000000000e+00
-5.00000000000000028e-02  2.68184824186332715e-01  0.00000000000000000e+00
4.99999999999999958e-02  2.77777777777777790e-01  0.00000000000000000e+00
4.99999999999999958e-02  2.31815175813667285e-01  0.00000000000000000e+00
4.99999999999999958e-02  2.50000000000000000e-01  0.00000000000000000e+00
4.99999999999999958e-02  2.68184824186332715e-01  0.00000000000000000e+00
-5.00000000000000028e-02  3.33333333333333315e-01  0.00000000000000000e+00
-5.00000000000000028e-02  2.87370731369222865e-01  0.00000000000000000e+00
-5.00000000000000028e-02  3.05555555555555580e-01  0.00000000000000000e+00
-5.00000000000000028e-02  3.23740379741888240e-01  0.00000000000000000e+00
4.99999999999999958e-02  3.33333333333333315e-01  0.00000000000000000e+00
4.99999999999999958e-02  2.87370731369222865e-01  0.00000000000000000e+00
4.99999999999999958e-02  3.05555555555555580e-01  0.00000000000000000e+00
4.99999999999999958e-02  3.23740379741888240e-01  0.00000000000000000e+00
-5.00000000000000028e-02  3.88888888888888840e-01  0.00000000000000000e+00
-5.00000000000000028e-02  3.42926286924778334e-01  0.00000000000000000e+00
-5.00000000000000028e-02  3.61111111111111049e-01  0.00000000000000000e+00
-5.00000000000000028e-02  3.79295935297443765e-01  0.00000000000000000e+00
4.99999999999999958e-02  3.88888888888888840e-01  0.00000000000000000e+00
4.99999999999999958e-02  3.42926286924778334e-01  0.00000000000000000e+00
4.99999999999999958e-02  3.61111111111111049e-01  0.00000000000000000e+00
4.99999999999999958e-02  3.79295935297443765e-01  0.00000000000000000e+00
-5.00000000000000028e-02  4.44444444444444420e-01  0.00000000000000000e+00
-5.00000000000000028e-02  3.98481842480333914e-01  0.00000000000000000e+00
-5.00000000000000028e-02  4.16666666666666630e-01  0.00000000000000000e+00
-5.00000000000000028e-02  4.34851490852999345e-01  0.00000000000000000e+00
4.99999999999999958e-02  4.44444444444444420e-01  0.00000000000000000e+00
4.99999999999999958e-02  3.98481842480333914e-01  0.00000000000000000e+00
4.99999999999999958e-02  4.16666666666666630e-01  0.00000000000000000e+00
4.99999999999999958e-02  4.34851490852999345e-01  0.00000000000000000e+00
-5.00000000000000028e-02  5.00000000000000000e-01  0.00000000000000000e+00
-5.00000000000000028e-02  4.54037398035889495e-01  0.00000000000000000e+00
-5.00000000000000028e-02  4.72222222222222210e-01  0.00000000000000000e+00
-5.00000000000000028e-02  4.90407046408554925e-01  0.00000000000000000e+00
4.99999999999999958e-02  5.00000000000000000e-01  0.00000000000000000e+00
4.99999999999999958e-02  4.54037398035889495e-01  0.00000000000000000e+00
4.99999999999999958e-02  4.72222222222222210e-01  0.00000000000000000e+00
4.99999999999999958e-02  4.90407046408554925e-01  0.00000000000000000e+00
-5.00000000000000028e-02  5.55555555555555580e-01  0.00000000000000000e+00
-5.00000000000000028e-02  5.09592953591445075e-01  0.00000000000000000e+00
-5.00000000000000028e-02  5.27777777777777790e-01  0.00000000000000000e+00
-5.00000000000000028e-02  5.45962601964110505e-01  0.00000000000000000e+00
4.99999999999999958e-02  5.55555555555555580e-01  0.00000000000000000e+00
4.99999999999999958e-02  5.09592953591445075e-01  0.00000000000000000e+00
4.99999999999999958e-02  5.27777777777777790e-01  0.00000000000000000e+00
4.99999999999999958e-02  5.45962601964110505e-01  0.00000000000000000e+00
-5.00000000000000028e-02  6.11111111111111049e-01  0.00000000000000000e+00
-5.00000000000000028e-02  5.65148509147000655e-01  0.00000000000000000e+00
-5.00000000000000028e-02  5.83333333333333259e-01  0.00000000000000000e+00
-5.00000000000000028e-02  6.01518157519665975e-01  0.00000000000000000e+00
4.99999999999999958e-02  6.11111111111111049e-01  0.00000000000000000e+00
4.99999999999999958e-02  5.65148509147000655e-01  0.00000000000000000e+00
4.99999999999999958e-02  5.83333333333333259e-01  0.00000000000000000e+00
4.99999999999999958e-02  6.01518157519665975e-01  0.00000000000000000e+00
-5.00000000000000028e-02  6.66666666666666630e-01  0.00000000000000000e+00
-5.00000000000000028e-02  6.20704064702556013e-01  0.00000000000000000e+00
-5.00000000000000028e-02  6.38888888888888840e-01  0.00000000000000000e+00
-5.00000000000000028e-02  6.57073713075221555e-01  0.00000000000000000e+00
4.99999999999999958e-02  6.66666666666666630e-01  0.00000000000000000e+00
4.99999999999999958e-02  6.20704064702556013e-01  0.00000000000000000e+00
4.99999999999999958e-02  6.38888888888888840e-01  0.00000000000000000e+00
4.99999999999999958e-02  6.57073713075221555e-01  0.00000000000000000e+00
-5.00000000000000028e-02  7.22222222222222210e-01  0.00000000000000000e+00
-5.00000000000000028e-02  6.76259620258111704e-01  0.00000000000000000e+00
-5.00000000000000028e-02  6.94444444444444420e-01  0.00000000000000000e+00
-5.00000000000000028e-02  7.12629268630777135e-01  0.00000000000000000e+00
4.99999999999999958e-02  7.22222222222222210e-01  0.00000000000000000e+00
4.99999999999999958e-02  6.76259620258111704e-01  0.00000000000000000e+00
4.99999999999999958e-02  6.94444444444444420e-01  0.00000000000000000e+00
4.99999999999999958e-02  7.12629268630777135e-01  0.00000000000000000e+00
-5.00000000000000028e-02  7.77777777777777679e-01  0.00000000000000000e+00
-5.00000000000000028e-02  7.31815175813667174e-01  0.00000000000000000e+00
-5.00000000000000028e-02  7.50000000000000000e-01  0.00000000000000000e+00
-5.00000000000000028e-02  7.68184824186332604e-01  0.00000000000000000e+00
4.99999999999999958e-02  7.77777777777777679e-01  0.00000000000000000e+00
4.99999999999999958e-02  7.31815175813667174e-01  0.00000000000000000e+00
4.99999999999999958e-02  7.50000000000000000e-01  0.00000000000000000e+00
4.99999999999999958e-02  7.68184824186332604e-01  0.00000000000000000e+00
-5.00000000000000028e-02  8.33333333333333259e-01  0.00000000000000000e+00
-5.00000000000000028e-02  7.87370731369222754e-01  0.00000000000000000e+00
-5.00000000000000028e-02  8.05555555555555469e-01  0.00000000000000000e+00
-5.00000000000000028e-02  8.23740379741888185e-01  0.00000000000000000e+00
4.99999999999999958e-02  8.33333333333333259e-01  0.00000000000000000e+00
4.99999999999999958e-02  7.87370731369222754e-01  0.00000000000000000e+00
4.99999999999999958e-02  8.05555555555555469e-01  0.00000000000000000e+00
4.99999999999999958e-02  8.23740379741888185e-01  0.00000000000000000e+00
-5.00000000000000028e-02  8.88888888888888840e-01  0.00000000000000000e+00
-5.00000000000000028e-02  8.42926286924778334e-01  0.00000000000000000e+00
-5.00000000000000028e-02  8.61111111111111049e-01  0.00000000000000000e+00
-5.00000000000000028e-02  8.79295935297443765e-01  0.00000000000000000e+00
4.99999999999999958e-02  8.88888888888888840e-01  0.00000000000000000e+00
4.99999999999999958e-02  8.42926286924778334e-01  0.00000000000000000e+00
4.99999999999999958e-02  8.61111111111111049e-01  0.00000000000000000e+00
4.99999999999999958e-02  8.79295935297443765e-01  0.00000000000000000e+00
-5.00000000000000028e-02  9.44444444444444420e-01  0.00000000000000000e+00
-5.00000000000000028e-02  8.98481842480333914e-01  0.00000000000000000e+00
-5.00000000000000028e-02  9.16666666666666630e-01  0.00000000000000000e+00
-5.00000000000000028e-02  9.34851490852999345e-01  0.00000000000000000e+00
4.99999999999999958e-02  9.44444444444444420e-01  0.00000000000000000e+00
4.99999999999999958e-02  8.98481842480333914e-01  0.00000000000000000e+00
4.99999999999999958e-02  9.16666666666666630e-01  0.00000000000000000e+00
4.99999999999999958e-02  9.34851490852999345e-01  0.00000000000000000e+00
-5.00000000000000028e-02  1.00000000000000000e+00  0.00000000000000000e+00
-1.66666666666666699e-02  1.00000000000000000e+00  0.00000000000000000e+00
-5.00000000000000028e-02  9.54037398035889495e-01  0.00000000000000000e+00
-5.00000000000000028e-02  9.72222222222222210e-01  0.00000000000000000e+00
-5.00000000000000028e-02  9.90407046408554925e-01  0.00000000000000000e+00
-4.42442278451329538e-02  1.00000000000000000e+00  0.00000000000000000e+00
-3.33333333333333398e-02  1.00000000000000000e+00  0.00000000000000000e+00
-2.24224388215337189e-02  1.00000000000000000e+00  0.00000000000000000e+00
1.66666666666666630e-02  1.00000000000000000e+00  0.00000000000000000e+00
-1.09108945117996226e-02  1.00000000000000000e+00  0.00000000000000000e+00
-3.46944695195361419e-18  1.00000000000000000e+00  0.00000000000000000e+00
1.09108945117996139e-02  1.00000000000000000e+00  0.00000000000000000e+00
4.99999999999999958e-02  1.00000000000000000e+00  0.00000000000000000e+00
4.99999999999999958e-02  9.54037398035889495e-01  0.00000000000000000e+00
4.99999999999999958e-02  9.72222222222222210e-01  0.00000000000000000e+00
4.99999999999999958e-02  9.90407046408554925e-01  0.00000000000000000e+00
2.24224388215337120e-02  1.00000000000000000e+00  0.00000000000000000e+00
3.33333333333333259e-02  1.00000000000000000e+00  0.00000000000000000e+00
4.42442278451329468e-02  1.00000000000000000e+00  0.00000000000000000e+00

CELLS 0 0


CELL_TYPES 0


POINT_DATA 157

VECTORS VertexNormals double

0.00000000000000000e+00 0.00000000000000000e+00 0
0.00000000000000000e+00 0.00000000000000000e+00 0
0.00000000000000000e+00 0.00000000000000000e+00 0
0.00000000000000000e+00 0.00000000000000000e+00 0
0.00000000000000000e+00 0.00000000000000000e+00 0
0.00000000000000000e+00 0.00000000000000000e+00 0
0.00000000000000000e+00 0.00000000000000000e+00 0
0.00000000000000000e+00 0.00000000000000000e+00 0
0.00000000000000000e+00 0.00000000000000000e+00 0
0.00000000000000000e+00 0.00000000000000000e+00 0
0.00000000000000000e+00 0.00000000000000000e+00 0
0.00000000000000000e+00 0.00000000000000000e+00 0
0.00000000000000000e+00 0.00000000000000000e+00 0
0.00000000000000000e+00 0.00000000000000000e+00 0
0.00000000000000000e+00 0.00000000000000000e+00 0
0.00000000000000000e+00 0.00000000000000000e+00 0
0.00000000000000000e+00 0.00000000000000000e+00 0
0.00000000000000000e+00 0.00000000000000000e+00 0
0.00000000000000000e+00 0.00000000000000000e+00 0
0.00000000000000000e+00 0.00000000000000000e+00 0
0.00000000000000000e+00 0.00000000000000000e+00 0
0.00000000000000000e+00 0.00000000000000000e+00 0
0.00000000000000000e+00 0.00000000000000000e+00 0
0.00000000000000000e+00 0.00000000000000000e+00 0
0.00000000000000000e+00 0.00000000000000000e+00 0
0.00000000000000000e+00 0.00000000000000000e+00 0
0.00000000000000000e+00 0.00000000000000000e+00 0
0.00000000000000000e+00 0.00000000000000000e+00 0
0.00000000000000000e+00 0.00000000000000000e+00 0
0.00000000000000000e+00 0.00000000000000000e+00 0
0.00000000000000000e+00 0.00000000000000000e+00 0
0.00000000000000000e+00 0.00000000000000000e+00 0
0.00000000000000000e+00 0.00000000000000000e+00 0
0.00000000000000000e+00 0.00000000000000000e+00 0
0.00000000000000000e+00 0.00000000000000000e+00 0
0.00000000000000000e+00 0.00000000000000000e+00 0
0.00000000000000000e+00 0.00000000000000000e+00 0
0.00000000000000000e+00 0.00000000000000000e+00 0
0.00000000000000000e+00 0.00000000000000000e+00 0
0.00000000000000000e+00 0.00000000000000000e+00 0
0.00000000000000000e+00 0.00000000000000000e+00 0
0.00000000000000000e+00 0.00000000000000000e+00 0
0.00000000000000000e+00 0.00000000000000000e+00 0
0.00000000000000000e+00 0.00000000000000000e+00 0
0.00000000000000000e+00 0.00000000000000000e+00 0
0.00000000000000000e+00 0.00000000000000000e+00 0
0.00000000000000000e+00 0.00000000000000000e+00 0
0.00000000000000000e+00 0.00000000000000000e+00 0
0.00000000000000000e+00 0.00000000000000000e+00 0
0.00000000000000000e+00 0.00000000000000000e+00 0
0.00000000000000000e+00 0.00000000000000000e+00 0
0.00000000000000000e+00 0.00000000000000000e+00 0
0.00000000000000000e+00 0.00000000000000000e+00 0
0.00000000000000000e+00 0.00000000000000000e+00 0
0.00000000000000000e+00 0.00000000000000000e+00 0
0.00000000000000000e+00 0.00000000000000000e+00 0
0.00000000000000000e+00 0.00000000000000000e+00 0
0.00000000000000000e+00 0.00000000000000000e+00 0
0.00000000000000000e+00 0.00000000000000000e+00 0
0.00000000000000000e+00 0.00000000000000000e+00 0
0.00000000000000000e+00 0.00000000000000000e+00 0
0.00000000000000000e+00 0.00000000000000000e+00 0
0.00000000000000000e+00 0.00000000000000000e+00 0
0.00000000000000000e+00 0.00000000000000000e+00 0
0.00000000000000000e+00 0.00000000000000000e+00 0
0.00000000000000000e+00 0.00000000000000000e+00 0
0.00000000000000000e+00 0.00000000000000000e+00 0
0.00000000000000000e+00 0.00000000000000000e+00 0
0.00000000000000000e+00 0.00000000000000000e+00 0
0.00000000000000000e+00 0.00000000000000000e+00 0
0.00000000000000000e+00 0.00000000000000000e+00 0
0.00000000000000000e+00 0.00000000000000000e+00 0
0.00000000000000000e+00 0.00000000000000000e+00 0
0.00000000000000000e+00 0.00000000000000000e+00 0
0.00000000000000000e+00 0.00000000000000000e+00 0
0.00000000000000000e+00 0.00000000000000000e+00 0
0.00000000000000000e+00 0.00000000000000000e+00 0
0.00000000000000000e+00 0.00000000000000000e+00 0
0.00000000000000000e+00 0.00000000000000000e+00 0
0.00000000000000000e+00 0.00000000000000000e+00 0
0.00000000000000000e+00 0.00000000000000000e+00 0
0.00000000000000000e+00 0.00000000000000000e+00 0
0.00000000000000000e+00 0.00000000000000000e+00 0
0.00000000000000000e+00 0.00000000000000000e+00 0
0.00000000000000000e+00 0.00000000000000000e+00 0
0.00000000000000000e+00 0.00000000000000000e+00 0
0.00000000000000000e+00 0.00000000000000000e+00 0
0.00000000000000000e+00 0.00000000000000000e+00 0
0.00000000000000000e+00 0.00000000000000000e+00 0
0.00000000000000000e+00 0.00000000000000000e+00 0
0.00000000000000000e+00 0.00000000000000000e+00 0
0.00000000000000000e+00 0.00000000000000000e+00 0
0.00000000000000000e+00 0.00000000000000000e+00 0
0.00000000000000000e+00 0.00000000000000000e+00 0
0.00000000000000000e+00 0.00000000000000000e+00 0
0.00000000000000000e+00 0.00000000000000000e+00 0
0.00000000000000000e+00 0.00000000000000000e+00 0
0.00000000000000000e+00 0.00000000000000000e+00 0
0.00000000000000000e+00 0.00000000000000000e+00 0
0.00000000000000000e+00 0.00000000000000000e+00 0
0.00000000000000000e+00 0.00000000000000000e+00 0
0.00000000000000000e+00 0.00000000000000000e+00 0
0.00000000000000000e+00 0.00000000000000000e+00 0
0.00000000000000000e+00 0.00000000000000000e+00 0
0.00000000000000000e+00 0.00000000000000000e+00 0
0.00000000000000000e+00 0.00000000000000000e+00 0
0.00000000000000000e+00 0.00000000000000000e+00 0
0.00000000000000000e+00 0.00000000000000000e+00 0
0.00000000000000000e+00 0.00000000000000000e+00 0
0.00000000000000000e+00 0.00000000000000000e+00 0
0.00000000000000000e+00 0.00000000000000000e+00 0
0.00000000000000000e+00 0.00000000000000000e+00 0
0.00000000000000000e+00 0.00000000000000000e+00 0
0.00000000000000000e+00 0.00000000000000000e+00 0
0.00000000000000000e+00 0.00000000000000000e+00 0
0.00000000000000000e+00 0.00000000000000000e+00 0
0.00000000000000000e+00 0.00000000000000000e+00 0
0.00000000000000000e+00 0.00000000000000000e+00 0
0.00000000000000000e+00 0.00000000000000000e+00 0
0.00000000000000000e+00 0.00000000000000000e+00 0
0.00000000000000000e+00 0.00000000000000000e+00 0
0.00000000000000000e+00 0.00000000000000000e+00 0
0.00000000000000000e+00 0.00000000000000000e+00 0
0.00000000000000000e+00 0.00000000000000000e+00 0
0.00000000000000000e+00 0.00000000000000000e+00 0
0.00000000000000000e+00 0.00000000000000000e+00 0
0.00000000000000000e+00 0.00000000000000000e+00 0
0.00000000000000000e+00 0.00000000000000000e+00 0
0.00000000000000000e+00 0.00000000000000000e+00 0
0.00000000000000000e+00 0.00000000000000000e+00 0
0.00000000000000000e+00 0.00000000000000000e+00 0
0.00000000000000000e+00 0.00000000000000000e+00 0
0.00000000000000000e+00 0.00000000000000000e+00 0
0.00000000000000000e+00 0.00000000000000000e+00 0
0.00000000000000000e+00 0.00000000000000000e+00 0
0.00000000000000000e+00 0.00000000000000000e+00 0
0.00000000000000000e+00 0.00000000000000000e+00 0
0.00000000000000000e+00 0.00000000000000000e+00 0
0.00000000000000000e+00 0.00000000000000000e+00 0
0.00000000000000000e+00 0.00000000000000000e+00 0
0.00000000000000000e+00 0.00000000000000000e+00 0
0.00000000000000000e+00 0.00000000000000000e+00 0
0.00000000000000000e+00 0.00000000000000000e+00 0
0.00000000000000000e+00 0.00000000000000000e+00 0
0.00000000000000000e+00 0.00000000000000000e+00 0
0.00000000000000000e+00 0.00000000000000000e+00 0
0.00000000000000000e+00 0.00000000000000000e+00 0
0.00000000000000000e+00 0.00000000000000000e+00 0
0.00000000000000000e+00 0.00000000000000000e+00 0
0.00000000000000000e+00 0.00000000000000000e+00 0
0.00000000000000000e+00 0.00000000000000000e+00 0
0.00000000000000000e+00 0.00000000000000000e+00 0
0.00000000000000000e+00 0.00000000000000000e+00 0
0.00000000000000000e+00 0.00000000000000000e+00 0
0.00000000000000000e+00 0.00000000000000000e+00 0
0.00000000000000000e+00 0.00000000000000000e+00 0
0.00000000000000000e+00 0.00000000000000000e+00 0

VECTORS Displacement double
0.00000000000000000e+00 0.00000000000000000e+00 0
2.13826662491679668e-05 2.79759901823620266e-05 0
3.70779622697915734e-06 5.46591914000443932e-06 0
8.75965797099817493e-06 1.43382963344150894e-05 0
1.62542720165237981e-05 2.33254139455245433e-05 0
0.00000000000000000e+00 0.00000000000000000e+00 0
2.13918666454148040e-05 -2.80387112572036888e-05 0
3.70252442175933210e-06 -5.47054885107243978e-06 0
8.72820101748385943e-06 -1.43685907423988835e-05 0
1.62441075478960808e-05 -2.33831499306600804e-05 0
6.88556171062859433e-05 5.39954933271171337e-05 0
2.75188777329185871e-05 3.26329920580044594e-05 0
4.15330970065980163e-05 4.12814129273224417e-05 0
5.86571048101519626e-05 4.96646369861887619e-05 0
6.88607790931861796e-05 -5.41135865501547888e-05 0
2.75338228431057577e-05 -3.26982406778404479e-05 0
4.15322361134717121e-05 -4.13604899217380901e-05 0
5.86418930922350432e-05 -4.97703888587733601e-05 0
1.43919624239820509e-04 7.78969971738426991e-05 0
7.99000074901515559e-05 5.82705778809279747e-05 0
1.03059330991945864e-04 6.62057005312829055e-05 0
1.29070514772603432e-04 7.39183728494558515e-05 0
1.43912781805251533e-04 -7.80645065685792422e-05 0
7.99126195311449352e-05 -5.83917552254171809e-05 0
1.03065197299353955e-04 -6.63385919142156136e-05 0
1.29066280874953938e-04 -7.40729295884137641e-05 0
2.44458523631233774e-04 9.98550094087929978e-05 0
1.59487335668342852e-04 8.18197825187808763e-05 0
1.91078707522880062e-04 8.91191062048645491e-05 0
2.25339955130233224e-04 9.62103007831453951e-05 0
2.44429071553975961e-04 -9.99924699295040565e-05 0
1.59507718561104935e-04 -8.19934808374954026e-05 0
1.91119620425103312e-04 -8.92777716861813651e-05 0
2.25344061185310795e-04 -9.63489309853903078e-05 0
3.68329055475381860e-04 1.19637846864722140e-04 0
2.64280827239062987e-04 1.03418303899472405e-04 0
3.03623665394900247e-04 1.10007988812099128e-04 0
3.45361841876020098e-04 1.16380210460680263e-04 0
3.68316335688812727e-04 -1.19791724436660581e-04 0
2.64217681835763707e-04 -1.03569638526321333e-04 0
3.03583653248858554e-04 -1.10178270990570412e-04 0
3.45350399598518844e-04 -1.16542820561279782e-04 0
5.12960623147973782e-04 1.37016329551345093e-04 0
3.91931553456525820e-04 1.22814631232201553e-04 0
4.38276945499165916e-04 1.28614881196334284e-04 0
4.86628291345859835e-04 1.34174770658479205e-04 0
5.12963700836111544e-04 -1.37148934208230111e-04 0
3.91904268736446826e-04 -1.22963028117052355e-04 0
4.38243163249379670e-04 -1.28766147727823809e-04 0
4.86627911619850247e-04 -1.34319265850701682e-04 0
6.75571447253432125e-04 1.51970863339482502e-04 0
5.39843646074311917e-04 1.39784264400680171e-04 0
5.92258413578932081e-04 1.44804206759475892e-04 0
6.46367566832875789e-04 1.49551938990662452e-04 0
6.75554604879213751e-04 -1.52060403649416874e-04 0
5.39840480777569864e-04 -1.39904138286994615e-04 0
5.92218059711736465e-04 -1.44911518595976419e-04 0
6.46334373633039908e-04 -1.49653607008133887e-04 0
8.53484400297293525e-04 1.64607229284435938e-04 0
7.05249528801424222e-04 1.54330718054575239e-04 0
7.62770249951612214e-04 1.58614538070303411e-04 0
8.21818732472030279e-04 1.62611677892940138e-04 0
8.53423414321449508e-04 -1.64633018283669548e-04 0
7.05235602354954780e-04 -1.54402315946168035e-04 0
7.62726236382528923e-04 -1.58653267215404183e-04 0
8.21736846701599344e-04 -1.62638109355328772e-04 0
1.04401649283557881e-03 1.74871997009837753e-04 0
8.85533759190462971e-04 1.66549758600277533e-04 0
9.47299309802940325e-04 1.70047746071716552e-04 0
1.01031267721453746e-03 1.73280194440351509e-04 0
1.04393546533885205e-03 -1.74799678043297728e-04 0
8.85489867075508878e-04 -1.66560112368629488e-04 0
9.47262848467259814e-04 -1.70018057419322739e-04 0
1.01025021765517695e-03 -1.73217046740910410e-04 0
1.24448385063865110e-03 1.82869783610592782e-04 0
1.07796597419023148e-03 1.76396086108714258e-04 0
1.14311128046336698e-03 1.79132417494491864e-04 0
1.20923865826632021e-03 1.81645212438098308e-04 0
1.24440802009402455e-03 -1.82683598154290583e-04 0
1.07790170231231858e-03 -1.76316565060995374e-04 0
1.14306879429955442e-03 -1.79016569556112310e-04 0
1.20918256505231749e-03 -1.81481118216422456e-04 0
1.45235028532542023e-03 1.88773910525335756e-04 0
1.27995600404252571e-03 1.84011857676425307e-04 0
1.34764109049947934e-03 1.86023551782129378e-04 0
1.41600900601394409e-03 1.87871772121228896e-04 0
1.45230550013158966e-03 -1.88465726872699474e-04 0
1.27985658114029648e-03 -1.83815058839536638e-04 0
1.34757533748332031e-03 -1.85802886217874741e-04 0
1.41596987457726911e-03 -1.87597551940694388e-04 0
1.66556532907160453e-03 1.92903125194520216e-04 0
1.48887104490980321e-03 1.89617448631091367e-04 0
1.55846741037568332e-03 1.91046455613235399e-04 0
1.62845912531374556e-03 1.92300589280314580e-04 0
1.66552197079188253e-03 -1.92453355407866151e-04 0
1.48880678413831273e-03 -1.89277556143176498e-04 0
1.55838867822645998e-03 -1.90665433593527719e-04 0
1.62841151540355183e-03 -1.91879753512060822e-04 0
1.88219560347557434e-03 1.95420812187451160e-04 0
1.70278570805990222e-03 1.93458149246740458e-04 0
1.77362353975197922e-03 1.94360223169657480e-04 0
1.84465590935172278e-03 1.95084744653978228e-04 0
1.88215620008243766e-03 -1.94864426317496872e-04 0
1.70273815598842994e-03 -1.92978901457298058e-04 0
1.77354453557996075e-03 -1.93838574714301373e-04 0
1.84459303255801667e-03 -1.94544077114476533e-04 0
2.10063650206079216e-03 1.96655753075760910e-04 0
1.91980745188041063e-03 1.95728109465232174e-04 0
1.99128011245557936e-03 1.96213443955493123e-04 0
2.06289102061808869e-03 1.96543370774852585e-04 0
2.10056790253252594e-03 -1.95997481295570510e-04 0
1.91977803255077980e-03 -1.95148308323969569e-04 0
1.99123103612688186e-03 -1.95583534603229728e-04 0
2.06280431012524157e-03 -1.95883354663081992e-04 0
2.31944133058302774e-03 1.97003330419437183e-04 0
2.13839738365709242e-03 1.96760207416411012e-04 0
2.21000882052627655e-03 1.96907801855218282e-04 0
2.28164719863785176e-03 1.96987676979017823e-04 0
2.31938304156051539e-03 -1.96228426049069375e-04 0
2.13834724558192553e-03 -1.96088010388794992e-04 0
2.20997679621462960e-03 -1.96195591247963675e-04 0
2.28160381952367299e-03 -1.96232633793371044e-04 0
2.53800503752367370e-03 1.97054471651909613e-04 0
2.35717791403970830e-03 1.97003010569080561e-04 0
2.42871133776930434e-03 1.97017403317619361e-04 0
2.50025583449470061e-03 1.97041186631412730e-04 0
2.53794946625817124e-03 -1.96164360427175140e-04 0
2.35713237330251960e-03 -1.96220971354787988e-04 0
2.42868169066411035e-03 -1.96200158324583477e-04 0
2.50021642729219857e-03 -1.96176816025229756e-04 0
2.75641865968210284e-03 1.97108035357454280e-04 0
2.57576662608015317e-03 1.97055132823856856e-04 0
2.64722545094342801e-03 1.97042806076987739e-04 0
2.71868740156818670e-03 1.97077190827057969e-04 0
2.75639177106479357e-03 -1.96148204542182419e-04 0
2.57568515609444236e-03 -1.96145363365524166e-04 0
2.64715944148947221e-03 -1.96136187024316898e-04 0
2.71865744700612415e-03 -1.96145278226473273e-04 0
2.97490177293480585e-03 1.97139103299348551e-04 0
2.97491361179158705e-03 6.60404932536550545e-05 0
2.79417763159221224e-03 1.97134274091165387e-04 0
2.86572771404157607e-03 1.97148568319154775e-04 0
2.93719439759853457e-03 1.97137681312866347e-04 0
2.97490527564775193e-03 1.74516008802307537e-04 0
2.97492334282905072e-03 1.31627372066345607e-04 0
2.97492132912423150e-03 8.86892067475365348e-05 0
2.97488489701940506e-03 -6.50621491333347452e-05 0
2.97490801068048824e-03 4.34028457741992475e-05 0
2.97490368291399064e-03 5.01183799143066891e-07 0
2.97489197660965416e-03 -4.24221412034310564e-05 0
2.97487514793890774e-03 -1.96146219513809245e-04 0
2.79414170334182400e-03 -1.96144892685390382e-04 0
2.86567093155705921e-03 -1.96130776059772578e-04 0
2.93714800322706759e-03 -1.96138023792914495e-04 0
2.97488210261591737e-03 -8.76942900663925677e-05 0
2.97488262336554482e-03 -1.30591948354814841e-04 0
2.97487643015634890e-03 -1.73504986286488540e-04 0

VECTORS Force double
1.96607279165391918e-01 8.15797768773120300e-04 0
-9.29394517503619344e-01 6.08060374963368734e-04 0
-9.44038907188202048e-01 1.65751797479156922e-05 0
7.40227378663080948e+00 -5.55441434025683804e-03 0
3.56936728016709770e+00 -2.63651864057948097e-03 0
6.90227474337030134e-02 8.92136823222378257e-04 0
-3.50433204757219507e-01 4.22194165922041436e-04 0
-3.52998088413804367e-01 -2.80964758780786388e-04 0
2.79447854069290136e+00 -3.28081620902995631e-03 0
1.34777683347505217e+00 -1.55317059530950567e-03 0
-8.31862493463977670e-01 3.52131595450300931e-03 0
-5.11771826794722509e-02 4.58423250571189731e-04 0
6.00032746580972831e-01 -2.53137761430733766e-03 0
9.57746033100707272e+00 -3.93263129179448334e-02 0
-3.09734273880829969e-01 -8.95544865871490626e-05 0
-1.78432097296349693e-02 -6.01356364679813318e-05 0
2.23294477828041016e-01 3.28266974876358314e-05 0
3.56503837041598182e+00 1.13461010180720880e-03 0
9.36863733844061564e+00 -5.44351218390792119e-02 0
9.68707714719128227e-02 -4.68746020405599981e-04 0
-1.85200145319890479e-02 4.52575243129854001e-05 0
2.65632391904370713e-02 2.47452488553943816e-05 0
3.41935559968947000e+00 3.41691552159721357e-02 0
3.58453359289432824e-02 -3.47457366403975286e-06 0
-7.31148628483794909e-03 -2.97775408981298407e-05 0
9.33085427991795814e-03 7.19330489163160311e-06 0
-8.45946138196231212e-01 4.39380337898404201e-03 0
2.81562026143154821e-02 -1.32555614129481102e-05 0
-1.82007480296090991e-02 -1.54439203144788941e-06 0
9.58300889937264977e-02 -5.80510643731888334e-04 0
-3.03108061100788861e-01 -8.36221573857252529e-03 0
1.01025330834476589e-02 -1.61656758386497792e-05 0
-7.07169540766904720e-03 -1.68838128885070190e-04 0
3.40770891980064078e-02 1.05889939241871804e-03 0
-9.61458963894747054e-01 9.23853363503755829e-04 0
9.74357457933198390e+00 -4.88371206552270301e-02 0
6.10082948524597324e-01 -3.09707790857755624e-03 0
-5.48659092908829818e-02 5.38264748587991178e-04 0
-3.39050359948680602e-01 -1.70175443177815709e-02 0
3.48932833313490587e+00 9.32001390290442128e-02 0
2.18456809010798447e-01 5.56360421818670892e-03 0
-1.97978067694440096e-02 1.97505960563270716e-04 0
4.82490895756277682e-01 1.34003220750562196e-03 0
3.68946219862320257e+00 -3.93130401979120952e-03 0
7.63541656973414451e+00 -8.11505268253430272e-03 0