# vtk DataFile Version 2.0

ASCII

DATASET UNSTRUCTURED_GRID

POINTS 79 float 

-5.0000000000000003e-02  0.0000000000000000e+00  0.0000000000000000e+00
-5.0000000000000003e-02  5.5555555555555552e-02  0.0000000000000000e+00
-5.0000000000000003e-02  2.7777777777777776e-02  0.0000000000000000e+00
5.0000000000000003e-02  0.0000000000000000e+00  0.0000000000000000e+00
5.0000000000000003e-02  5.5555555555555552e-02  0.0000000000000000e+00
5.0000000000000003e-02  2.7777777777777776e-02  0.0000000000000000e+00
-5.0000000000000003e-02  1.1111111111111110e-01  0.0000000000000000e+00
-5.0000000000000003e-02  8.3333333333333329e-02  0.0000000000000000e+00
5.0000000000000003e-02  1.1111111111111110e-01  0.0000000000000000e+00
5.0000000000000003e-02  8.3333333333333329e-02  0.0000000000000000e+00
-5.0000000000000003e-02  1.6666666666666666e-01  0.0000000000000000e+00
-5.0000000000000003e-02  1.3888888888888890e-01  0.0000000000000000e+00
5.0000000000000003e-02  1.6666666666666666e-01  0.0000000000000000e+00
5.0000000000000003e-02  1.3888888888888890e-01  0.0000000000000000e+00
-5.0000000000000003e-02  2.2222222222222221e-01  0.0000000000000000e+00
-5.0000000000000003e-02  1.9444444444444442e-01  0.0000000000000000e+00
5.0000000000000003e-02  2.2222222222222221e-01  0.0000000000000000e+00
5.0000000000000003e-02  1.9444444444444442e-01  0.0000000000000000e+00
-5.0000000000000003e-02  2.7777777777777779e-01  0.0000000000000000e+00
-5.0000000000000003e-02  2.5000000000000000e-01  0.0000000000000000e+00
5.0000000000000003e-02  2.7777777777777779e-01  0.0000000000000000e+00
5.0000000000000003e-02  2.5000000000000000e-01  0.0000000000000000e+00
-5.0000000000000003e-02  3.3333333333333331e-01  0.0000000000000000e+00
-5.0000000000000003e-02  3.0555555555555558e-01  0.0000000000000000e+00
5.0000000000000003e-02  3.3333333333333331e-01  0.0000000000000000e+00
5.0000000000000003e-02  3.0555555555555558e-01  0.0000000000000000e+00
-5.0000000000000003e-02  3.8888888888888884e-01  0.0000000000000000e+00
-5.0000000000000003e-02  3.6111111111111105e-01  0.0000000000000000e+00
5.0000000000000003e-02  3.8888888888888884e-01  0.0000000000000000e+00
5.0000000000000003e-02  3.6111111111111105e-01  0.0000000000000000e+00
-5.0000000000000003e-02  4.4444444444444442e-01  0.0000000000000000e+00
-5.0000000000000003e-02  4.1666666666666663e-01  0.0000000000000000e+00
5.0000000000000003e-02  4.4444444444444442e-01  0.0000000000000000e+00
5.0000000000000003e-02  4.1666666666666663e-01  0.0000000000000000e+00
-5.0000000000000003e-02  5.0000000000000000e-01  0.0000000000000000e+00
-5.0000000000000003e-02  4.7222222222222221e-01  0.0000000000000000e+00
5.0000000000000003e-02  5.0000000000000000e-01  0.0000000000000000e+00
5.0000000000000003e-02  4.7222222222222221e-01  0.0000000000000000e+00
-5.0000000000000003e-02  5.5555555555555558e-01  0.0000000000000000e+00
-5.0000000000000003e-02  5.2777777777777779e-01  0.0000000000000000e+00
5.0000000000000003e-02  5.5555555555555558e-01  0.0000000000000000e+00
5.0000000000000003e-02  5.2777777777777779e-01  0.0000000000000000e+00
-5.0000000000000003e-02  6.1111111111111105e-01  0.0000000000000000e+00
-5.0000000000000003e-02  5.8333333333333326e-01  0.0000000000000000e+00
5.0000000000000003e-02  6.1111111111111105e-01  0.0000000000000000e+00
5.0000000000000003e-02  5.8333333333333326e-01  0.0000000000000000e+00
-5.0000000000000003e-02  6.6666666666666663e-01  0.0000000000000000e+00
-5.0000000000000003e-02  6.3888888888888884e-01  0.0000000000000000e+00
5.0000000000000003e-02  6.6666666666666663e-01  0.0000000000000000e+00
5.0000000000000003e-02  6.3888888888888884e-01  0.0000000000000000e+00
-5.0000000000000003e-02  7.2222222222222221e-01  0.0000000000000000e+00
-5.0000000000000003e-02  6.9444444444444442e-01  0.0000000000000000e+00
5.0000000000000003e-02  7.2222222222222221e-01  0.0000000000000000e+00
5.0000000000000003e-02  6.9444444444444442e-01  0.0000000000000000e+00
-5.0000000000000003e-02  7.7777777777777768e-01  0.0000000000000000e+00
-5.0000000000000003e-02  7.5000000000000000e-01  0.0000000000000000e+00
5.0000000000000003e-02  7.7777777777777768e-01  0.0000000000000000e+00
5.0000000000000003e-02  7.5000000000000000e-01  0.0000000000000000e+00
-5.0000000000000003e-02  8.3333333333333326e-01  0.0000000000000000e+00
-5.0000000000000003e-02  8.0555555555555547e-01  0.0000000000000000e+00
5.0000000000000003e-02  8.3333333333333326e-01  0.0000000000000000e+00
5.0000000000000003e-02  8.0555555555555547e-01  0.0000000000000000e+00
-5.0000000000000003e-02  8.8888888888888884e-01  0.0000000000000000e+00
-5.0000000000000003e-02  8.6111111111111105e-01  0.0000000000000000e+00
5.0000000000000003e-02  8.8888888888888884e-01  0.0000000000000000e+00
5.0000000000000003e-02  8.6111111111111105e-01  0.0000000000000000e+00
-5.0000000000000003e-02  9.4444444444444442e-01  0.0000000000000000e+00
-5.0000000000000003e-02  9.1666666666666663e-01  0.0000000000000000e+00
5.0000000000000003e-02  9.4444444444444442e-01  0.0000000000000000e+00
5.0000000000000003e-02  9.1666666666666663e-01  0.0000000000000000e+00
-5.0000000000000003e-02  1.0000000000000000e+00  0.0000000000000000e+00
-1.6666666666666670e-02  1.0000000000000000e+00  0.0000000000000000e+00
-5.0000000000000003e-02  9.7222222222222221e-01  0.0000000000000000e+00
-3.3333333333333340e-02  1.0000000000000000e+00  0.0000000000000000e+00
1.6666666666666663e-02  1.0000000000000000e+00  0.0000000000000000e+00
-3.4694469519536142e-18  1.0000000000000000e+00  0.0000000000000000e+00
5.0000000000000003e-02  1.0000000000000000e+00  0.0000000000000000e+00
5.0000000000000003e-02  9.7222222222222221e-01  0.0000000000000000e+00
3.3333333333333333e-02  1.0000000000000000e+00  0.0000000000000000e+00

CELLS 0 0


CELL_TYPES 0


POINT_DATA 79

VECTORS VertexNormals float

0.0000000000000000e+00 0.0000000000000000e+00 0
0.0000000000000000e+00 0.0000000000000000e+00 0
0.0000000000000000e+00 0.0000000000000000e+00 0
0.0000000000000000e+00 0.0000000000000000e+00 0
0.0000000000000000e+00 0.0000000000000000e+00 0
0.0000000000000000e+00 0.0000000000000000e+00 0
0.0000000000000000e+00 0.0000000000000000e+00 0
0.0000000000000000e+00 0.0000000000000000e+00 0
0.0000000000000000e+00 0.0000000000000000e+00 0
0.0000000000000000e+00 0.0000000000000000e+00 0
0.0000000000000000e+00 0.0000000000000000e+00 0
0.0000000000000000e+00 0.0000000000000000e+00 0
0.0000000000000000e+00 0.0000000000000000e+00 0
0.0000000000000000e+00 0.0000000000000000e+00 0
0.0000000000000000e+00 0.0000000000000000e+00 0
0.0000000000000000e+00 0.0000000000000000e+00 0
0.0000000000000000e+00 0.0000000000000000e+00 0
0.0000000000000000e+00 0.0000000000000000e+00 0
0.0000000000000000e+00 0.0000000000000000e+00 0
0.0000000000000000e+00 0.0000000000000000e+00 0
0.0000000000000000e+00 0.0000000000000000e+00 0
0.0000000000000000e+00 0.0000000000000000e+00 0
0.0000000000000000e+00 0.0000000000000000e+00 0
0.0000000000000000e+00 0.0000000000000000e+00 0
0.0000000000000000e+00 0.0000000000000000e+00 0
0.0000000000000000e+00 0.0000000000000000e+00 0
0.0000000000000000e+00 0.0000000000000000e+00 0
0.0000000000000000e+00 0.0000000000000000e+00 0
0.0000000000000000e+00 0.0000000000000000e+00 0
0.0000000000000000e+00 0.0000000000000000e+00 0
0.0000000000000000e+00 0.0000000000000000e+00 0
0.0000000000000000e+00 0.0000000000000000e+00 0
0.0000000000000000e+00 0.0000000000000000e+00 0
0.0000000000000000e+00 0.0000000000000000e+00 0
0.0000000000000000e+00 0.0000000000000000e+00 0
0.0000000000000000e+00 0.0000000000000000e+00 0
0.0000000000000000e+00 0.0000000000000000e+00 0
0.0000000000000000e+00 0.0000000000000000e+00 0
0.0000000000000000e+00 0.0000000000000000e+00 0
0.0000000000000000e+00 0.0000000000000000e+00 0
0.0000000000000000e+00 0.0000000000000000e+00 0
0.0000000000000000e+00 0.0000000000000000e+00 0
0.0000000000000000e+00 0.0000000000000000e+00 0
0.0000000000000000e+00 0.0000000000000000e+00 0
0.0000000000000000e+00 0.0000000000000000e+00 0
0.0000000000000000e+00 0.0000000000000000e+00 0
0.0000000000000000e+00 0.0000000000000000e+00 0
0.0000000000000000e+00 0.0000000000000000e+00 0
0.0000000000000000e+00 0.0000000000000000e+00 0
0.0000000000000000e+00 0.0000000000000000e+00 0
0.0000000000000000e+00 0.0000000000000000e+00 0
0.0000000000000000e+00 0.0000000000000000e+00 0
0.0000000000000000e+00 0.0000000000000000e+00 0
0.0000000000000000e+00 0.0000000000000000e+00 0
0.0000000000000000e+00 0.0000000000000000e+00 0
0.0000000000000000e+00 0.0000000000000000e+00 0
0.0000000000000000e+00 0.0000000000000000e+00 0
0.0000000000000000e+00 0.0000000000000000e+00 0
0.0000000000000000e+00 0.0000000000000000e+00 0
0.0000000000000000e+00 0.0000000000000000e+00 0
0.0000000000000000e+00 0.0000000000000000e+00 0
0.0000000000000000e+00 0.0000000000000000e+00 0
0.0000000000000000e+00 0.0000000000000000e+00 0
0.0000000000000000e+00 0.0000000000000000e+00 0
0.0000000000000000e+00 0.0000000000000000e+00 0
0.0000000000000000e+00 0.0000000000000000e+00 0
0.0000000000000000e+00 0.0000000000000000e+00 0
0.0000000000000000e+00 0.0000000000000000e+00 0
0.0000000000000000e+00 0.0000000000000000e+00 0
0.0000000000000000e+00 0.0000000000000000e+00 0
0.0000000000000000e+00 0.0000000000000000e+00 0
0.0000000000000000e+00 0.0000000000000000e+00 0
0.0000000000000000e+00 0.0000000000000000e+00 0
0.0000000000000000e+00 0.0000000000000000e+00 0
0.0000000000000000e+00 0.0000000000000000e+00 0
0.0000000000000000e+00 0.0000000000000000e+00 0
0.0000000000000000e+00 0.0000000000000000e+00 0
0.0000000000000000e+00 0.0000000000000000e+00 0
0.0000000000000000e+00 0.0000000000000000e+00 0

VECTORS Displacement float
0.0000000000000000e+00 0.0000000000000000e+00 0
2.0955683783994623e-03 2.6966751654102982e-03 0
8.9534583689555055e-04 1.3946021456872583e-03 0
0.0000000000000000e+00 0.0000000000000000e+00 0
2.1762020048506571e-03 -2.7450843723159334e-03 0
9.4396307571272594e-04 -1.4307929991211089e-03 0
6.7928254342626594e-03 5.2978206213906906e-03 0
4.0844489953543173e-03 3.9893786346520115e-03 0
6.7441878584176074e-03 -5.4688855874492036e-03 0
4.0963761091795817e-03 -4.0754481884643142e-03 0
1.4318508231866776e-02 8.0387466056628595e-03 0
1.0163444724838620e-02 6.6422923965040320e-03 0
1.4405524606009131e-02 -8.2504218894709318e-03 0
1.0187424912607011e-02 -6.8737445732539523e-03 0
2.5122255914777694e-02 1.0829175454252212e-02 0
1.9335320803909421e-02 9.4431834811690672e-03 0
2.5027370299821855e-02 -1.0997186794302352e-02 0
1.9330809565563857e-02 -9.6069864106611488e-03 0
3.8909191719792166e-02 1.3378038236136272e-02 0
3.1649173518807014e-02 1.2159142605338166e-02 0
3.8957454724220283e-02 -1.3572835217781116e-02 0
3.1600397614294770e-02 -1.2358901059804212e-02 0
5.5242205919270967e-02 1.5560806066245800e-02 0
4.6788887519163581e-02 1.4482534201023949e-02 0
5.5159514867990769e-02 -1.5689150222963133e-02 0
4.6812742594319688e-02 -1.4632072109600472e-02 0
7.3852486340188567e-02 1.7703545047969036e-02 0
6.4277920226929075e-02 1.6639345015348823e-02 0
7.3894205380172856e-02 -1.7859380051287493e-02 0
6.4198785512388515e-02 -1.6800772521939986e-02 0
9.4936975949232533e-02 1.9679328117449196e-02 0
8.4088081774853191e-02 1.8736150503272694e-02 0
9.4934171238676909e-02 -1.9719759724105120e-02 0
8.4173293229295759e-02 -1.8816558684314200e-02 0
1.1794722219891265e-01 2.1278818806026223e-02 0
1.0622782892281583e-01 2.0512530218756844e-02 0
1.1792694657217098e-01 -2.1374312508706278e-02 0
1.0615743841444077e-01 -2.0588221238074168e-02 0
1.4252737483525613e-01 2.2680750019906180e-02 0
1.3004413153203140e-01 2.1997436657396157e-02 0
1.4251090977819317e-01 -2.2595384125491239e-02 0
1.3009365250763472e-01 -2.2014004903810724e-02 0
1.6853499863836729e-01 2.3802160977229467e-02 0
1.5540377249360066e-01 2.3279184936147897e-02 0
1.6847405792865777e-01 -2.3697931029298049e-02 0
1.5529569845992919e-01 -2.3177704713495721e-02 0
1.9546744327791027e-01 2.4750290112532047e-02 0
1.8185806379181640e-01 2.4293700082673161e-02 0
1.9553159336377895e-01 -2.4461711863690092e-02 0
1.8191592321934705e-01 -2.4104358502093047e-02 0
2.2335502857200687e-01 2.5518760229559109e-02 0
2.0933514743817869e-01 2.5142358844220301e-02 0
2.2331501439539048e-01 -2.5242098536912633e-02 0
2.0929659084119817e-01 -2.4832957870125003e-02 0
2.5211912097037226e-01 2.6333346617405579e-02 0
2.3759337670781794e-01 2.5932090615463515e-02 0
2.5221118499185002e-01 -2.6016582763639308e-02 0
2.3765800362824530e-01 -2.5653026625140567e-02 0
2.8180044430328671e-01 2.6819302281447258e-02 0
2.6689519374824294e-01 2.6628596257225405e-02 0
2.8176722531157139e-01 -2.6571961399207991e-02 0
2.6690424708667615e-01 -2.6323156234694174e-02 0
3.1169991913548106e-01 2.7012887669805925e-02 0
2.9673467710201207e-01 2.6930859589833236e-02 0
3.1185121386460291e-01 -2.6771640852958446e-02 0
2.9679967167901899e-01 -2.6725314646613541e-02 0
3.4173808408763917e-01 2.7060716694482595e-02 0
3.2672209192178248e-01 2.7058845264111644e-02 0
3.4170247218740690e-01 -2.6816835055187137e-02 0
3.2678252126548391e-01 -2.6777162921120728e-02 0
3.7160214178690121e-01 2.7022128519929297e-02 0
3.7163330439147918e-01 9.1185263865808178e-03 0
3.5669065908989983e-01 2.7034760574249046e-02 0
3.7161150546179428e-01 1.8077238519959404e-02 0
3.7170812495846384e-01 -8.8452476384859174e-03 0
3.7166602746703642e-01 1.4516290364437244e-04 0
3.7176029035011482e-01 -2.6876852065439424e-02 0
3.5671457192734712e-01 -2.6856946256236486e-02 0
3.7174501632315471e-01 -1.7853780458188910e-02 0

VECTORS Stress float
0.0000000000000000e+00 0.0000000000000000e+00 0
0.0000000000000000e+00 0.0000000000000000e+00 0
0.0000000000000000e+00 0.0000000000000000e+00 0
0.0000000000000000e+00 0.0000000000000000e+00 0
0.0000000000000000e+00 0.0000000000000000e+00 0
0.0000000000000000e+00 0.0000000000000000e+00 0
0.0000000000000000e+00 0.0000000000000000e+00 0
0.0000000000000000e+00 0.0000000000000000e+00 0
0.0000000000000000e+00 0.0000000000000000e+00 0
0.0000000000000000e+00 0.0000000000000000e+00 0
0.0000000000000000e+00 0.0000000000000000e+00 0
0.0000000000000000e+00 0.0000000000000000e+00 0
0.0000000000000000e+00 0.0000000000000000e+00 0
0.0000000000000000e+00 0.0000000000000000e+00 0
0.0000000000000000e+00 0.0000000000000000e+00 0
0.0000000000000000e+00 0.0000000000000000e+00 0
0.0000000000000000e+00 0.0000000000000000e+00 0
0.0000000000000000e+00 0.0000000000000000e+00 0
0.0000000000000000e+00 0.0000000000000000e+00 0
0.0000000000000000e+00 0.0000000000000000e+00 0
0.0000000000000000e+00 0.0000000000000000e+00 0
0.0000000000000000e+00 0.0000000000000000e+00 0
0.0000000000000000e+00 0.0000000000000000e+00 0
0.0000000000000000e+00 0.0000000000000000e+00 0
0.0000000000000000e+00 0.0000000000000000e+00 0
0.0000000000000000e+00 0.0000000000000000e+00 0
0.0000000000000000e+00 0.0000000000000000e+00 0
0.0000000000000000e+00 0.0000000000000000e+00 0
0.0000000000000000e+00 0.0000000000000000e+00 0
0.0000000000000000e+00 0.0000000000000000e+00 0
0.0000000000000000e+00 0.0000000000000000e+00 0
0.0000000000000000e+00 0.0000000000000000e+00 0
0.0000000000000000e+00 0.0000000000000000e+00 0
0.0000000000000000e+00 0.0000000000000000e+00 0
0.0000000000000000e+00 0.0000000000000000e+00 0
0.0000000000000000e+00 0.0000000000000000e+00 0
0.0000000000000000e+00 0.0000000000000000e+00 0
0.0000000000000000e+00 0.0000000000000000e+00 0
0.0000000000000000e+00 0.0000000000000000e+00 0
0.0000000000000000e+00 0.0000000000000000e+00 0
0.0000000000000000e+00 0.0000000000000000e+00 0
0.0000000000000000e+00 0.0000000000000000e+00 0
0.0000000000000000e+00 0.0000000000000000e+00 0
0.0000000000000000e+00 0.0000000000000000e+00 0
0.0000000000000000e+00 0.0000000000000000e+00 0
0.0000000000000000e+00 0.0000000000000000e+00 0
0.0000000000000000e+00 0.0000000000000000e+00 0
0.0000000000000000e+00 0.0000000000000000e+00 0
0.0000000000000000e+00 0.0000000000000000e+00 0
0.0000000000000000e+00 0.0000000000000000e+00 0
0.0000000000000000e+00 0.0000000000000000e+00 0
0.0000000000000000e+00 0.0000000000000000e+00 0
0.0000000000000000e+00 0.0000000000000000e+00 0
0.0000000000000000e+00 0.0000000000000000e+00 0
0.0000000000000000e+00 0.0000000000000000e+00 0
0.0000000000000000e+00 0.0000000000000000e+00 0
0.0000000000000000e+00 0.0000000000000000e+00 0
0.0000000000000000e+00 0.0000000000000000e+00 0
0.0000000000000000e+00 0.0000000000000000e+00 0
0.0000000000000000e+00 0.0000000000000000e+00 0
0.0000000000000000e+00 0.0000000000000000e+00 0
0.0000000000000000e+00 0.0000000000000000e+00 0
0.0000000000000000e+00 0.0000000000000000e+00 0
0.0000000000000000e+00 0.0000000000000000e+00 0
0.0000000000000000e+00 0.0000000000000000e+00 0
0.0000000000000000e+00 0.0000000000000000e+00 0
0.0000000000000000e+00 0.0000000000000000e+00 0
0.0000000000000000e+00 0.0000000000000000e+00 0
0.0000000000000000e+00 0.0000000000000000e+00 0
0.0000000000000000e+00 0.0000000000000000e+00 0
0.0000000000000000e+00 0.0000000000000000e+00 0
0.0000000000000000e+00 0.0000000000000000e+00 0
0.0000000000000000e+00 0.0000000000000000e+00 0
0.0000000000000000e+00 0.0000000000000000e+00 0
0.0000000000000000e+00 0.0000000000000000e+00 0
0.0000000000000000e+00 0.0000000000000000e+00 0
0.0000000000000000e+00 0.0000000000000000e+00 0
0.0000000000000000e+00 0.0000000000000000e+00 0
0.0000000000000000e+00 0.0000000000000000e+00 0

