# vtk DataFile Version 2.0

ASCII

DATASET UNSTRUCTURED_GRID

POINTS 157 double 

-5.00000000000000028e-02  0.00000000000000000e+00  0.00000000000000000e+00
-5.00000000000000028e-02  5.55555555555555525e-02  0.00000000000000000e+00
-5.00000000000000028e-02  9.59295359144507823e-03  0.00000000000000000e+00
-5.00000000000000028e-02  2.77777777777777762e-02  0.00000000000000000e+00
-5.00000000000000028e-02  4.59626019641104708e-02  0.00000000000000000e+00
4.99999999999999958e-02  0.00000000000000000e+00  0.00000000000000000e+00
4.99999999999999958e-02  5.55555555555555525e-02  0.00000000000000000e+00
4.99999999999999958e-02  9.59295359144507823e-03  0.00000000000000000e+00
4.99999999999999958e-02  2.77777777777777762e-02  0.00000000000000000e+00
4.99999999999999958e-02  4.59626019641104708e-02  0.00000000000000000e+00
-5.00000000000000028e-02  1.11111111111111105e-01  0.00000000000000000e+00
-5.00000000000000028e-02  6.51485091470006272e-02  0.00000000000000000e+00
-5.00000000000000028e-02  8.33333333333333287e-02  0.00000000000000000e+00
-5.00000000000000028e-02  1.01518157519666030e-01  0.00000000000000000e+00
4.99999999999999958e-02  1.11111111111111105e-01  0.00000000000000000e+00
4.99999999999999958e-02  6.51485091470006272e-02  0.00000000000000000e+00
4.99999999999999958e-02  8.33333333333333287e-02  0.00000000000000000e+00
4.99999999999999958e-02  1.01518157519666030e-01  0.00000000000000000e+00
-5.00000000000000028e-02  1.66666666666666657e-01  0.00000000000000000e+00
-5.00000000000000028e-02  1.20704064702556180e-01  0.00000000000000000e+00
-5.00000000000000028e-02  1.38888888888888895e-01  0.00000000000000000e+00
-5.00000000000000028e-02  1.57073713075221583e-01  0.00000000000000000e+00
4.99999999999999958e-02  1.66666666666666657e-01  0.00000000000000000e+00
4.99999999999999958e-02  1.20704064702556180e-01  0.00000000000000000e+00
4.99999999999999958e-02  1.38888888888888895e-01  0.00000000000000000e+00
4.99999999999999958e-02  1.57073713075221583e-01  0.00000000000000000e+00
-5.00000000000000028e-02  2.22222222222222210e-01  0.00000000000000000e+00
-5.00000000000000028e-02  1.76259620258111732e-01  0.00000000000000000e+00
-5.00000000000000028e-02  1.94444444444444420e-01  0.00000000000000000e+00
-5.00000000000000028e-02  2.12629268630777135e-01  0.00000000000000000e+00
4.99999999999999958e-02  2.22222222222222210e-01  0.00000000000000000e+00
4.99999999999999958e-02  1.76259620258111732e-01  0.00000000000000000e+00
4.99999999999999958e-02  1.94444444444444420e-01  0.00000000000000000e+00
4.99999999999999958e-02  2.12629268630777135e-01  0.00000000000000000e+00
-5.00000000000000028e-02  2.77777777777777790e-01  0.00000000000000000e+00
-5.00000000000000028e-02  2.31815175813667285e-01  0.00000000000000000e+00
-5.00000000000000028e-02  2.50000000000000000e-01  0.00000000000000000e+00
-5.00000000000000028e-02  2.68184824186332715e-01  0.00000000000000000e+00
4.99999999999999958e-02  2.77777777777777790e-01  0.00000000000000000e+00
4.99999999999999958e-02  2.31815175813667285e-01  0.00000000000000000e+00
4.99999999999999958e-02  2.50000000000000000e-01  0.00000000000000000e+00
4.99999999999999958e-02  2.68184824186332715e-01  0.00000000000000000e+00
-5.00000000000000028e-02  3.33333333333333315e-01  0.00000000000000000e+00
-5.00000000000000028e-02  2.87370731369222865e-01  0.00000000000000000e+00
-5.00000000000000028e-02  3.05555555555555580e-01  0.00000000000000000e+00
-5.00000000000000028e-02  3.23740379741888240e-01  0.00000000000000000e+00
4.99999999999999958e-02  3.33333333333333315e-01  0.00000000000000000e+00
4.99999999999999958e-02  2.87370731369222865e-01  0.00000000000000000e+00
4.99999999999999958e-02  3.05555555555555580e-01  0.00000000000000000e+00
4.99999999999999958e-02  3.23740379741888240e-01  0.00000000000000000e+00
-5.00000000000000028e-02  3.88888888888888840e-01  0.00000000000000000e+00
-5.00000000000000028e-02  3.42926286924778334e-01  0.00000000000000000e+00
-5.00000000000000028e-02  3.61111111111111049e-01  0.00000000000000000e+00
-5.00000000000000028e-02  3.79295935297443765e-01  0.00000000000000000e+00
4.99999999999999958e-02  3.88888888888888840e-01  0.00000000000000000e+00
4.99999999999999958e-02  3.42926286924778334e-01  0.00000000000000000e+00
4.99999999999999958e-02  3.61111111111111049e-01  0.00000000000000000e+00
4.99999999999999958e-02  3.79295935297443765e-01  0.00000000000000000e+00
-5.00000000000000028e-02  4.44444444444444420e-01  0.00000000000000000e+00
-5.00000000000000028e-02  3.98481842480333914e-01  0.00000000000000000e+00
-5.00000000000000028e-02  4.16666666666666630e-01  0.00000000000000000e+00
-5.00000000000000028e-02  4.34851490852999345e-01  0.00000000000000000e+00
4.99999999999999958e-02  4.44444444444444420e-01  0.00000000000000000e+00
4.99999999999999958e-02  3.98481842480333914e-01  0.00000000000000000e+00
4.99999999999999958e-02  4.16666666666666630e-01  0.00000000000000000e+00
4.99999999999999958e-02  4.34851490852999345e-01  0.00000000000000000e+00
-5.00000000000000028e-02  5.00000000000000000e-01  0.00000000000000000e+00
-5.00000000000000028e-02  4.54037398035889495e-01  0.00000000000000000e+00
-5.00000000000000028e-02  4.72222222222222210e-01  0.00000000000000000e+00
-5.00000000000000028e-02  4.90407046408554925e-01  0.00000000000000000e+00
4.99999999999999958e-02  5.00000000000000000e-01  0.00000000000000000e+00
4.99999999999999958e-02  4.54037398035889495e-01  0.00000000000000000e+00
4.99999999999999958e-02  4.72222222222222210e-01  0.00000000000000000e+00
4.99999999999999958e-02  4.90407046408554925e-01  0.00000000000000000e+00
-5.00000000000000028e-02  5.55555555555555580e-01  0.00000000000000000e+00
-5.00000000000000028e-02  5.09592953591445075e-01  0.00000000000000000e+00
-5.00000000000000028e-02  5.27777777777777790e-01  0.00000000000000000e+00
-5.00000000000000028e-02  5.45962601964110505e-01  0.00000000000000000e+00
4.99999999999999958e-02  5.55555555555555580e-01  0.00000000000000000e+00
4.99999999999999958e-02  5.09592953591445075e-01  0.00000000000000000e+00
4.99999999999999958e-02  5.27777777777777790e-01  0.00000000000000000e+00
4.99999999999999958e-02  5.45962601964110505e-01  0.00000000000000000e+00
-5.00000000000000028e-02  6.11111111111111049e-01  0.00000000000000000e+00
-5.00000000000000028e-02  5.65148509147000655e-01  0.00000000000000000e+00
-5.00000000000000028e-02  5.83333333333333259e-01  0.00000000000000000e+00
-5.00000000000000028e-02  6.01518157519665975e-01  0.00000000000000000e+00
4.99999999999999958e-02  6.11111111111111049e-01  0.00000000000000000e+00
4.99999999999999958e-02  5.65148509147000655e-01  0.00000000000000000e+00
4.99999999999999958e-02  5.83333333333333259e-01  0.00000000000000000e+00
4.99999999999999958e-02  6.01518157519665975e-01  0.00000000000000000e+00
-5.00000000000000028e-02  6.66666666666666630e-01  0.00000000000000000e+00
-5.00000000000000028e-02  6.20704064702556013e-01  0.00000000000000000e+00
-5.00000000000000028e-02  6.38888888888888840e-01  0.00000000000000000e+00
-5.00000000000000028e-02  6.57073713075221555e-01  0.00000000000000000e+00
4.99999999999999958e-02  6.66666666666666630e-01  0.00000000000000000e+00
4.99999999999999958e-02  6.20704064702556013e-01  0.00000000000000000e+00
4.99999999999999958e-02  6.38888888888888840e-01  0.00000000000000000e+00
4.99999999999999958e-02  6.57073713075221555e-01  0.00000000000000000e+00
-5.00000000000000028e-02  7.22222222222222210e-01  0.00000000000000000e+00
-5.00000000000000028e-02  6.76259620258111704e-01  0.00000000000000000e+00
-5.00000000000000028e-02  6.94444444444444420e-01  0.00000000000000000e+00
-5.00000000000000028e-02  7.12629268630777135e-01  0.00000000000000000e+00
4.99999999999999958e-02  7.22222222222222210e-01  0.00000000000000000e+00
4.99999999999999958e-02  6.76259620258111704e-01  0.00000000000000000e+00
4.99999999999999958e-02  6.94444444444444420e-01  0.00000000000000000e+00
4.99999999999999958e-02  7.12629268630777135e-01  0.00000000000000000e+00
-5.00000000000000028e-02  7.77777777777777679e-01  0.00000000000000000e+00
-5.00000000000000028e-02  7.31815175813667174e-01  0.00000000000000000e+00
-5.00000000000000028e-02  7.50000000000000000e-01  0.00000000000000000e+00
-5.00000000000000028e-02  7.68184824186332604e-01  0.00000000000000000e+00
4.99999999999999958e-02  7.77777777777777679e-01  0.00000000000000000e+00
4.99999999999999958e-02  7.31815175813667174e-01  0.00000000000000000e+00
4.99999999999999958e-02  7.50000000000000000e-01  0.00000000000000000e+00
4.99999999999999958e-02  7.68184824186332604e-01  0.00000000000000000e+00
-5.00000000000000028e-02  8.33333333333333259e-01  0.00000000000000000e+00
-5.00000000000000028e-02  7.87370731369222754e-01  0.00000000000000000e+00
-5.00000000000000028e-02  8.05555555555555469e-01  0.00000000000000000e+00
-5.00000000000000028e-02  8.23740379741888185e-01  0.00000000000000000e+00
4.99999999999999958e-02  8.33333333333333259e-01  0.00000000000000000e+00
4.99999999999999958e-02  7.87370731369222754e-01  0.00000000000000000e+00
4.99999999999999958e-02  8.05555555555555469e-01  0.00000000000000000e+00
4.99999999999999958e-02  8.23740379741888185e-01  0.00000000000000000e+00
-5.00000000000000028e-02  8.88888888888888840e-01  0.00000000000000000e+00
-5.00000000000000028e-02  8.42926286924778334e-01  0.00000000000000000e+00
-5.00000000000000028e-02  8.61111111111111049e-01  0.00000000000000000e+00
-5.00000000000000028e-02  8.79295935297443765e-01  0.00000000000000000e+00
4.99999999999999958e-02  8.88888888888888840e-01  0.00000000000000000e+00
4.99999999999999958e-02  8.42926286924778334e-01  0.00000000000000000e+00
4.99999999999999958e-02  8.61111111111111049e-01  0.00000000000000000e+00
4.99999999999999958e-02  8.79295935297443765e-01  0.00000000000000000e+00
-5.00000000000000028e-02  9.44444444444444420e-01  0.00000000000000000e+00
-5.00000000000000028e-02  8.98481842480333914e-01  0.00000000000000000e+00
-5.00000000000000028e-02  9.16666666666666630e-01  0.00000000000000000e+00
-5.00000000000000028e-02  9.34851490852999345e-01  0.00000000000000000e+00
4.99999999999999958e-02  9.44444444444444420e-01  0.00000000000000000e+00
4.99999999999999958e-02  8.98481842480333914e-01  0.00000000000000000e+00
4.99999999999999958e-02  9.16666666666666630e-01  0.00000000000000000e+00
4.99999999999999958e-02  9.34851490852999345e-01  0.00000000000000000e+00
-5.00000000000000028e-02  1.00000000000000000e+00  0.00000000000000000e+00
-1.66666666666666699e-02  1.00000000000000000e+00  0.00000000000000000e+00
-5.00000000000000028e-02  9.54037398035889495e-01  0.00000000000000000e+00
-5.00000000000000028e-02  9.72222222222222210e-01  0.00000000000000000e+00
-5.00000000000000028e-02  9.90407046408554925e-01  0.00000000000000000e+00
-4.42442278451329538e-02  1.00000000000000000e+00  0.00000000000000000e+00
-3.33333333333333398e-02  1.00000000000000000e+00  0.00000000000000000e+00
-2.24224388215337189e-02  1.00000000000000000e+00  0.00000000000000000e+00
1.66666666666666630e-02  1.00000000000000000e+00  0.00000000000000000e+00
-1.09108945117996226e-02  1.00000000000000000e+00  0.00000000000000000e+00
-3.46944695195361419e-18  1.00000000000000000e+00  0.00000000000000000e+00
1.09108945117996139e-02  1.00000000000000000e+00  0.00000000000000000e+00
4.99999999999999958e-02  1.00000000000000000e+00  0.00000000000000000e+00
4.99999999999999958e-02  9.54037398035889495e-01  0.00000000000000000e+00
4.99999999999999958e-02  9.72222222222222210e-01  0.00000000000000000e+00
4.99999999999999958e-02  9.90407046408554925e-01  0.00000000000000000e+00
2.24224388215337120e-02  1.00000000000000000e+00  0.00000000000000000e+00
3.33333333333333259e-02  1.00000000000000000e+00  0.00000000000000000e+00
4.42442278451329468e-02  1.00000000000000000e+00  0.00000000000000000e+00

CELLS 0 0


CELL_TYPES 0


POINT_DATA 157

VECTORS VertexNormals double

0.00000000000000000e+00 0.00000000000000000e+00 0
0.00000000000000000e+00 0.00000000000000000e+00 0
0.00000000000000000e+00 0.00000000000000000e+00 0
0.00000000000000000e+00 0.00000000000000000e+00 0
0.00000000000000000e+00 0.00000000000000000e+00 0
0.00000000000000000e+00 0.00000000000000000e+00 0
0.00000000000000000e+00 0.00000000000000000e+00 0
0.00000000000000000e+00 0.00000000000000000e+00 0
0.00000000000000000e+00 0.00000000000000000e+00 0
0.00000000000000000e+00 0.00000000000000000e+00 0
0.00000000000000000e+00 0.00000000000000000e+00 0
0.00000000000000000e+00 0.00000000000000000e+00 0
0.00000000000000000e+00 0.00000000000000000e+00 0
0.00000000000000000e+00 0.00000000000000000e+00 0
0.00000000000000000e+00 0.00000000000000000e+00 0
0.00000000000000000e+00 0.00000000000000000e+00 0
0.00000000000000000e+00 0.00000000000000000e+00 0
0.00000000000000000e+00 0.00000000000000000e+00 0
0.00000000000000000e+00 0.00000000000000000e+00 0
0.00000000000000000e+00 0.00000000000000000e+00 0
0.00000000000000000e+00 0.00000000000000000e+00 0
0.00000000000000000e+00 0.00000000000000000e+00 0
0.00000000000000000e+00 0.00000000000000000e+00 0
0.00000000000000000e+00 0.00000000000000000e+00 0
0.00000000000000000e+00 0.00000000000000000e+00 0
0.00000000000000000e+00 0.00000000000000000e+00 0
0.00000000000000000e+00 0.00000000000000000e+00 0
0.00000000000000000e+00 0.00000000000000000e+00 0
0.00000000000000000e+00 0.00000000000000000e+00 0
0.00000000000000000e+00 0.00000000000000000e+00 0
0.00000000000000000e+00 0.00000000000000000e+00 0
0.00000000000000000e+00 0.00000000000000000e+00 0
0.00000000000000000e+00 0.00000000000000000e+00 0
0.00000000000000000e+00 0.00000000000000000e+00 0
0.00000000000000000e+00 0.00000000000000000e+00 0
0.00000000000000000e+00 0.00000000000000000e+00 0
0.00000000000000000e+00 0.00000000000000000e+00 0
0.00000000000000000e+00 0.00000000000000000e+00 0
0.00000000000000000e+00 0.00000000000000000e+00 0
0.00000000000000000e+00 0.00000000000000000e+00 0
0.00000000000000000e+00 0.00000000000000000e+00 0
0.00000000000000000e+00 0.00000000000000000e+00 0
0.00000000000000000e+00 0.00000000000000000e+00 0
0.00000000000000000e+00 0.00000000000000000e+00 0
0.00000000000000000e+00 0.00000000000000000e+00 0
0.00000000000000000e+00 0.00000000000000000e+00 0
0.00000000000000000e+00 0.00000000000000000e+00 0
0.00000000000000000e+00 0.00000000000000000e+00 0
0.00000000000000000e+00 0.00000000000000000e+00 0
0.00000000000000000e+00 0.00000000000000000e+00 0
0.00000000000000000e+00 0.00000000000000000e+00 0
0.00000000000000000e+00 0.00000000000000000e+00 0
0.00000000000000000e+00 0.00000000000000000e+00 0
0.00000000000000000e+00 0.00000000000000000e+00 0
0.00000000000000000e+00 0.00000000000000000e+00 0
0.00000000000000000e+00 0.00000000000000000e+00 0
0.00000000000000000e+00 0.00000000000000000e+00 0
0.00000000000000000e+00 0.00000000000000000e+00 0
0.00000000000000000e+00 0.00000000000000000e+00 0
0.00000000000000000e+00 0.00000000000000000e+00 0
0.00000000000000000e+00 0.00000000000000000e+00 0
0.00000000000000000e+00 0.00000000000000000e+00 0
0.00000000000000000e+00 0.00000000000000000e+00 0
0.00000000000000000e+00 0.00000000000000000e+00 0
0.00000000000000000e+00 0.00000000000000000e+00 0
0.00000000000000000e+00 0.00000000000000000e+00 0
0.00000000000000000e+00 0.00000000000000000e+00 0
0.00000000000000000e+00 0.00000000000000000e+00 0
0.00000000000000000e+00 0.00000000000000000e+00 0
0.00000000000000000e+00 0.00000000000000000e+00 0
0.00000000000000000e+00 0.00000000000000000e+00 0
0.00000000000000000e+00 0.00000000000000000e+00 0
0.00000000000000000e+00 0.00000000000000000e+00 0
0.00000000000000000e+00 0.00000000000000000e+00 0
0.00000000000000000e+00 0.00000000000000000e+00 0
0.00000000000000000e+00 0.00000000000000000e+00 0
0.00000000000000000e+00 0.00000000000000000e+00 0
0.00000000000000000e+00 0.00000000000000000e+00 0
0.00000000000000000e+00 0.00000000000000000e+00 0
0.00000000000000000e+00 0.00000000000000000e+00 0
0.00000000000000000e+00 0.00000000000000000e+00 0
0.00000000000000000e+00 0.00000000000000000e+00 0
0.00000000000000000e+00 0.00000000000000000e+00 0
0.00000000000000000e+00 0.00000000000000000e+00 0
0.00000000000000000e+00 0.00000000000000000e+00 0
0.00000000000000000e+00 0.00000000000000000e+00 0
0.00000000000000000e+00 0.00000000000000000e+00 0
0.00000000000000000e+00 0.00000000000000000e+00 0
0.00000000000000000e+00 0.00000000000000000e+00 0
0.00000000000000000e+00 0.00000000000000000e+00 0
0.00000000000000000e+00 0.00000000000000000e+00 0
0.00000000000000000e+00 0.00000000000000000e+00 0
0.00000000000000000e+00 0.00000000000000000e+00 0
0.00000000000000000e+00 0.00000000000000000e+00 0
0.00000000000000000e+00 0.00000000000000000e+00 0
0.00000000000000000e+00 0.00000000000000000e+00 0
0.00000000000000000e+00 0.00000000000000000e+00 0
0.00000000000000000e+00 0.00000000000000000e+00 0
0.00000000000000000e+00 0.00000000000000000e+00 0
0.00000000000000000e+00 0.00000000000000000e+00 0
0.00000000000000000e+00 0.00000000000000000e+00 0
0.00000000000000000e+00 0.00000000000000000e+00 0
0.00000000000000000e+00 0.00000000000000000e+00 0
0.00000000000000000e+00 0.00000000000000000e+00 0
0.00000000000000000e+00 0.00000000000000000e+00 0
0.00000000000000000e+00 0.00000000000000000e+00 0
0.00000000000000000e+00 0.00000000000000000e+00 0
0.00000000000000000e+00 0.00000000000000000e+00 0
0.00000000000000000e+00 0.00000000000000000e+00 0
0.00000000000000000e+00 0.00000000000000000e+00 0
0.00000000000000000e+00 0.00000000000000000e+00 0
0.00000000000000000e+00 0.00000000000000000e+00 0
0.00000000000000000e+00 0.00000000000000000e+00 0
0.00000000000000000e+00 0.00000000000000000e+00 0
0.00000000000000000e+00 0.00000000000000000e+00 0
0.00000000000000000e+00 0.00000000000000000e+00 0
0.00000000000000000e+00 0.00000000000000000e+00 0
0.00000000000000000e+00 0.00000000000000000e+00 0
0.00000000000000000e+00 0.00000000000000000e+00 0
0.00000000000000000e+00 0.00000000000000000e+00 0
0.00000000000000000e+00 0.00000000000000000e+00 0
0.00000000000000000e+00 0.00000000000000000e+00 0
0.00000000000000000e+00 0.00000000000000000e+00 0
0.00000000000000000e+00 0.00000000000000000e+00 0
0.00000000000000000e+00 0.00000000000000000e+00 0
0.00000000000000000e+00 0.00000000000000000e+00 0
0.00000000000000000e+00 0.00000000000000000e+00 0
0.00000000000000000e+00 0.00000000000000000e+00 0
0.00000000000000000e+00 0.00000000000000000e+00 0
0.00000000000000000e+00 0.00000000000000000e+00 0
0.00000000000000000e+00 0.00000000000000000e+00 0
0.00000000000000000e+00 0.00000000000000000e+00 0
0.00000000000000000e+00 0.00000000000000000e+00 0
0.00000000000000000e+00 0.00000000000000000e+00 0
0.00000000000000000e+00 0.00000000000000000e+00 0
0.00000000000000000e+00 0.00000000000000000e+00 0
0.00000000000000000e+00 0.00000000000000000e+00 0
0.00000000000000000e+00 0.00000000000000000e+00 0
0.00000000000000000e+00 0.00000000000000000e+00 0
0.00000000000000000e+00 0.00000000000000000e+00 0
0.00000000000000000e+00 0.00000000000000000e+00 0
0.00000000000000000e+00 0.00000000000000000e+00 0
0.00000000000000000e+00 0.00000000000000000e+00 0
0.00000000000000000e+00 0.00000000000000000e+00 0
0.00000000000000000e+00 0.00000000000000000e+00 0
0.00000000000000000e+00 0.00000000000000000e+00 0
0.00000000000000000e+00 0.00000000000000000e+00 0
0.00000000000000000e+00 0.00000000000000000e+00 0
0.00000000000000000e+00 0.00000000000000000e+00 0
0.00000000000000000e+00 0.00000000000000000e+00 0
0.00000000000000000e+00 0.00000000000000000e+00 0
0.00000000000000000e+00 0.00000000000000000e+00 0
0.00000000000000000e+00 0.00000000000000000e+00 0
0.00000000000000000e+00 0.00000000000000000e+00 0
0.00000000000000000e+00 0.00000000000000000e+00 0
0.00000000000000000e+00 0.00000000000000000e+00 0
0.00000000000000000e+00 0.00000000000000000e+00 0

VECTORS Displacement double
0.00000000000000000e+00 0.00000000000000000e+00 0
1.74488854361018862e-05 2.22385938990159505e-05 0
3.01435553438759778e-06 4.40678192671521998e-06 0
7.19628831168152491e-06 1.15032925606316669e-05 0
1.33219796091704897e-05 1.86005052047134532e-05 0
0.00000000000000000e+00 0.00000000000000000e+00 0
1.74358348151086648e-05 -2.22576012521556618e-05 0
3.02652201396288151e-06 -4.41016531903664245e-06 0
7.19228243025755704e-06 -1.15019502861126618e-05 0
1.33050284247295879e-05 -1.86093082913946652e-05 0
5.50390415410159065e-05 4.25602747685537001e-05 0
2.23460398734634881e-05 2.58726234730695136e-05 0
3.34506081285826877e-05 3.26268419100408783e-05 0
4.69905329508826401e-05 3.91818410759635108e-05 0
5.50191975021501218e-05 -4.26280620250833921e-05 0
2.23358792941946240e-05 -2.59028101947890933e-05 0
3.34433957165467885e-05 -3.26683606098618901e-05 0
4.69624817844500851e-05 -3.92351417873726884e-05 0
1.14153579957077198e-04 6.12299288583945166e-05 0
6.37379559298443995e-05 4.58923596976004543e-05 0
8.19651211589347107e-05 5.20890389667814165e-05 0
1.02449667979854082e-04 5.81205743904491978e-05 0
1.14140534793934101e-04 -6.13457826214192255e-05 0
6.37273426987959173e-05 -4.59731641760849127e-05 0
8.19745829475723465e-05 -5.21863314734005921e-05 0
1.02455530306644525e-04 -5.82277878247899531e-05 0
1.93221723446102136e-04 7.81337375152531250e-05 0
1.26428509361791640e-04 6.42839486207691298e-05 0
1.51309074615729283e-04 6.99150426993458874e-05 0
1.78220772219303758e-04 7.53473596649555691e-05 0
1.93231292322447532e-04 -7.83341481988628757e-05 0
1.26413117495581540e-04 -6.44144229271202424e-05 0
1.51294682505614774e-04 -7.00823584983314686e-05 0
1.78225997671786692e-04 -7.55418709847684129e-05 0
2.90166123064490144e-04 9.29751536239174033e-05 0
2.08772382153039898e-04 8.08528722141515349e-05 0
2.39619171855196114e-04 8.58342082331373763e-05 0
2.72260005070716930e-04 9.05729907371991889e-05 0
2.90157378769619707e-04 -9.32468356272391652e-05 0
2.08771970133052272e-04 -8.10615339863323130e-05 0
2.39622582903716307e-04 -8.60593835016551121e-05 0
2.72254313563656688e-04 -9.08256291124235314e-05 0
4.02347702195750495e-04 1.05589461719110653e-04 0
3.08539294282299628e-04 9.53157070054980421e-05 0
3.44556844137568587e-04 9.95608680739812433e-05 0
3.82015115296106302e-04 1.03564854015667659e-04 0
4.02375156572911058e-04 -1.05960500719888575e-04 0
3.08524049594997342e-04 -9.56049000086454926e-05 0
3.44545564115452025e-04 -9.98873848690979638e-05 0
3.82036569197819723e-04 -1.03923683546843857e-04 0
5.27198308144506971e-04 1.16293876201599834e-04 0
4.23059391148578089e-04 1.07558666894125293e-04 0
4.63338359007564333e-04 1.11147282715371240e-04 0
5.04833790982929542e-04 1.14560116866173586e-04 0
5.27194023288256992e-04 -1.16759869479329299e-04 0
4.23084131436038760e-04 -1.07941694124386674e-04 0
4.63334710053459368e-04 -1.11561004354255832e-04 0
5.04826177153240097e-04 -1.15010037418840580e-04 0
6.62788620429360649e-04 1.25624633520536393e-04 0
5.49889399484446519e-04 1.17978744919734079e-04 0
5.93743552500637347e-04 1.21077755610098179e-04 0
6.38683847681601044e-04 1.24079616176341181e-04 0
6.62755004532349329e-04 -1.26164911019159098e-04 0
5.49881430398695202e-04 -1.18461093685720480e-04 0
5.93723126507383664e-04 -1.21583201956381609e-04 0
6.38639994275872771e-04 -1.24604862372962186e-04 0
8.08087738622348915e-04 1.34131755187494062e-04 0
6.87198583136109471e-04 1.27149890645275723e-04 0
7.34261903594165470e-04 1.29965846544446420e-04 0
7.82322449875283736e-04 1.32707674287991303e-04 0
8.08077468553562630e-04 -1.34712454823413897e-04 0
6.87170102370510908e-04 -1.27700529337961688e-04 0
7.34244823532662202e-04 -1.30536332120570166e-04 0
7.82318294539117000e-04 -1.33288901188045048e-04 0
9.62430271549776168e-04 1.41923568563871185e-04 0
8.34102035949814608e-04 1.35533788807636470e-04 0
8.84171088889307809e-04 1.38119127018298518e-04 0
9.35161498670836178e-04 1.40625128371395101e-04 0
9.62400325814560310e-04 -1.42519527655784431e-04 0
8.34097589116277252e-04 -1.36116178721502803e-04 0
8.84156416244492307e-04 -1.38708961126159943e-04 0
9.35137879175122083e-04 -1.41221742156351533e-04 0
1.12509623250767990e-03 1.48934188563710416e-04 0
9.89963568739883702e-04 1.43196867665046042e-04 0
1.04277412669221618e-03 1.45545104840912688e-04 0
1.09645041059698166e-03 1.47791455324502936e-04 0
1.12506095310201636e-03 -1.49545256981999569e-04 0
9.89918802475916451e-04 -1.43794049048592620e-04 0
1.04274072435645601e-03 -1.46147645004339173e-04 0
1.09641819834965662e-03 -1.48399058437348968e-04 0
1.29512636840675233e-03 1.54979404872495442e-04 0
1.15397258439713926e-03 1.50054808719024497e-04 0
1.20928568397142707e-03 1.52092417056357460e-04 0
1.26529171312838879e-03 1.54011675705802007e-04 0
1.29510163552204482e-03 -1.55629999125948137e-04 0
1.15392630166097571e-03 -1.50666696085852326e-04 0
1.20922802909252105e-03 -1.52718660825416669e-04 0
1.26525893675602844e-03 -1.54658874684090439e-04 0
1.47131945379389635e-03 1.59952259185759758e-04 0
1.32514967820162297e-03 1.55915466229544081e-04 0
1.38256235657043371e-03 1.57600686236667543e-04 0
1.44052431132737978e-03 1.59168918825690911e-04 0
1.47128984024080464e-03 -1.60594590521363702e-04 0
1.32512782412393419e-03 -1.56565126682362655e-04 0
1.38252541109460270e-03 -1.58243986778862556e-04 0
1.44049060009015010e-03 -1.59812743512908963e-04 0
1.65245550870391270e-03 1.63840168513558173e-04 0
1.50227425043195453e-03 1.60699557320811368e-04 0
1.56134428420876860e-03 1.62034032662086713e-04 0
1.62089814570380011e-03 1.63254718448633884e-04 0
1.65239505253499878e-03 -1.64451097848901021e-04 0
1.50223969042579840e-03 -1.61339861908443388e-04 0
1.56129623940923202e-03 -1.62660302986527026e-04 0
1.62082789469388867e-03 -1.63862507790661866e-04 0
1.83728893620940152e-03 1.66574294034153777e-04 0
1.68413909930902896e-03 1.64398754446369236e-04 0
1.74449055773810940e-03 1.65350983326347303e-04 0
1.80515935058581773e-03 1.66179584555741075e-04 0
1.83724182863800509e-03 -1.67131527861560773e-04 0
1.68408455476994567e-03 -1.65004383180918671e-04 0
1.74444197951980425e-03 -1.65944643375168715e-04 0
1.80511740882517550e-03 -1.66754459898809054e-04 0
2.02440448579947231e-03 1.68168886988642535e-04 0
1.86945875646327532e-03 1.66927868419761323e-04 0
1.93063401918072306e-03 1.67506630680832556e-04 0
1.99198618228556973e-03 1.67966515218189426e-04 0
2.02434136061118135e-03 -1.68670644691658561e-04 0
1.86941756457002827e-03 -1.67478498569211454e-04 0
1.93058431226411750e-03 -1.68038543326709083e-04 0
1.99192393464194418e-03 -1.68480108671499926e-04 0
2.21244788539932957e-03 1.68836201910378805e-04 0
2.05686247922475755e-03 1.68342282776008455e-04 0
2.11837437748385029e-03 1.68586477953786441e-04 0
2.17994839597640370e-03 1.68763000319336622e-04 0
2.21239957631794593e-03 -1.69274563600656100e-04 0
2.05679689327914255e-03 -1.68826248433024952e-04 0
2.11832783582396574e-03 -1.69062540936660010e-04 0
2.17990386980359109e-03 -1.69220128050532698e-04 0
2.40057522761349777e-03 1.68970784205258893e-04 0
2.40053661230533967e-03 5.61862358624989590e-05 0
2.24496713349314368e-03 1.68900873654808151e-04 0
2.30658821516275831e-03 1.68966329249021000e-04 0
2.36812027537016637e-03 1.68970402179173757e-04 0
2.40057626248233857e-03 1.49500677977128541e-04 0
2.40057595097775212e-03 1.12594705150743257e-04 0
2.40055173897913690e-03 7.56612426305183848e-05 0
2.40051220969065768e-03 -5.65656677189971301e-05 0
2.40052759757100696e-03 3.67219428315480463e-05 0
2.40052290946444168e-03 -1.71970397925094797e-07 0
2.40051506432676981e-03 -3.70922898467057559e-05 0
2.40053190433576124e-03 -1.69362904167692861e-04 0
2.24491103451540880e-03 -1.69311854093004768e-04 0
2.30651827441484807e-03 -1.69341428278049164e-04 0
2.36805926726497149e-03 -1.69356417554414963e-04 0
2.40051590691309864e-03 -7.60329004607071443e-05 0
2.40053042648234651e-03 -1.12941123475718814e-04 0
2.40053249118640961e-03 -1.49875432166361261e-04 0

VECTORS Force double
1.96974724315211208e-01 7.71098974518773413e-04 0
-9.31046122740824766e-01 5.22361332777816420e-04 0
-9.45740308141154618e-01 2.31477143766072472e-05 0
7.41552556915790539e+00 -4.91005781488689733e-03 0
3.57574145585611092e+00 -2.36912822671046580e-03 0
6.85344862520719800e-02 8.13515100773756208e-04 0
-3.48199405044208821e-01 4.21571199209081935e-04 0
-3.50723629063025066e-01 -1.88970685135092813e-04 0
2.77674198688435592e+00 -3.21886546189491425e-03 0
1.33921896672481955e+00 -1.58175060470123487e-03 0
-8.33295550323703393e-01 3.32665122924111125e-03 0
-5.12747022883144610e-02 4.50163152053843644e-04 0
6.01099769329639377e-01 -2.38635853716275860e-03 0
9.59433984971853349e+00 -3.70597153885426911e-02 0
-3.07713342704672654e-01 -1.54267122755975285e-04 0
-1.77181002359754203e-02 -2.51219993575172367e-05 0
2.21846551705829342e-01 4.96658320654565062e-05 0
3.54188895625415423e+00 1.59453074637885936e-03 0
9.38492154702916359e+00 -5.11082545145834510e-02 0
9.70281248774928079e-02 -4.56167430688521358e-04 0
-1.85566770422597727e-02 4.70649091771347980e-05 0
2.66348612762520830e-02 2.73591995419876697e-06 0
3.39685969880123073e+00 3.50688888693620957e-02 0
3.56049300671975877e-02 -6.50466444813883246e-07 0
-7.27106243148075045e-03 -6.11449255565070666e-06 0
9.27566580377873345e-03 1.63067117489807667e-05 0
-8.47360914258938003e-01 3.98875517854556990e-03 0
2.82344916655024730e-02 -2.94563404344876278e-05 0
-1.82362986898419906e-02 1.97046468836340678e-05 0
9.59771242893976834e-02 -5.29841549899424144e-04 0
-3.01095249334302928e-01 -8.53126811461836325e-03 0
1.00460803567454862e-02 -7.20342861048267384e-07 0
-7.03013074562993442e-03 -1.37024171572338905e-04 0
3.38433164211208379e-02 1.05256155890821640e-03 0
-9.63064709663496332e-01 3.62576997889457297e-04 0
9.76024878194482781e+00 -4.43245953353614136e-02 0
6.11135867004260702e-01 -2.76587594689219887e-03 0
-5.49703953719618832e-02 5.44700959666284765e-04 0
-3.36816243745354904e-01 -1.71997556127156843e-02 0
3.46627900467629013e+00 9.44880721525037937e-02 0
2.17015022425176896e-01 5.69511184341599079e-03 0
-1.96682846206236682e-02 2.11200824945763810e-04 0
4.83286152873837360e-01 1.64717221305835148e-03 0
3.69567590394780154e+00 -1.92707374821109601e-03 0
7.64829438027023301e+00 -3.94373635220756844e-03 0