# vtk DataFile Version 2.0

ASCII

DATASET UNSTRUCTURED_GRID

POINTS 157 double 

-5.00000000000000028e-02  0.00000000000000000e+00  0.00000000000000000e+00
-5.00000000000000028e-02  5.55555555555555525e-02  0.00000000000000000e+00
-5.00000000000000028e-02  9.59295359144507823e-03  0.00000000000000000e+00
-5.00000000000000028e-02  2.77777777777777762e-02  0.00000000000000000e+00
-5.00000000000000028e-02  4.59626019641104708e-02  0.00000000000000000e+00
4.99999999999999958e-02  0.00000000000000000e+00  0.00000000000000000e+00
4.99999999999999958e-02  5.55555555555555525e-02  0.00000000000000000e+00
4.99999999999999958e-02  9.59295359144507823e-03  0.00000000000000000e+00
4.99999999999999958e-02  2.77777777777777762e-02  0.00000000000000000e+00
4.99999999999999958e-02  4.59626019641104708e-02  0.00000000000000000e+00
-5.00000000000000028e-02  1.11111111111111105e-01  0.00000000000000000e+00
-5.00000000000000028e-02  6.51485091470006272e-02  0.00000000000000000e+00
-5.00000000000000028e-02  8.33333333333333287e-02  0.00000000000000000e+00
-5.00000000000000028e-02  1.01518157519666030e-01  0.00000000000000000e+00
4.99999999999999958e-02  1.11111111111111105e-01  0.00000000000000000e+00
4.99999999999999958e-02  6.51485091470006272e-02  0.00000000000000000e+00
4.99999999999999958e-02  8.33333333333333287e-02  0.00000000000000000e+00
4.99999999999999958e-02  1.01518157519666030e-01  0.00000000000000000e+00
-5.00000000000000028e-02  1.66666666666666657e-01  0.00000000000000000e+00
-5.00000000000000028e-02  1.20704064702556180e-01  0.00000000000000000e+00
-5.00000000000000028e-02  1.38888888888888895e-01  0.00000000000000000e+00
-5.00000000000000028e-02  1.57073713075221583e-01  0.00000000000000000e+00
4.99999999999999958e-02  1.66666666666666657e-01  0.00000000000000000e+00
4.99999999999999958e-02  1.20704064702556180e-01  0.00000000000000000e+00
4.99999999999999958e-02  1.38888888888888895e-01  0.00000000000000000e+00
4.99999999999999958e-02  1.57073713075221583e-01  0.00000000000000000e+00
-5.00000000000000028e-02  2.22222222222222210e-01  0.00000000000000000e+00
-5.00000000000000028e-02  1.76259620258111732e-01  0.00000000000000000e+00
-5.00000000000000028e-02  1.94444444444444420e-01  0.00000000000000000e+00
-5.00000000000000028e-02  2.12629268630777135e-01  0.00000000000000000e+00
4.99999999999999958e-02  2.22222222222222210e-01  0.00000000000000000e+00
4.99999999999999958e-02  1.76259620258111732e-01  0.00000000000000000e+00
4.99999999999999958e-02  1.94444444444444420e-01  0.00000000000000000e+00
4.99999999999999958e-02  2.12629268630777135e-01  0.00000000000000000e+00
-5.00000000000000028e-02  2.77777777777777790e-01  0.00000000000000000e+00
-5.00000000000000028e-02  2.31815175813667285e-01  0.00000000000000000e+00
-5.00000000000000028e-02  2.50000000000000000e-01  0.00000000000000000e+00
-5.00000000000000028e-02  2.68184824186332715e-01  0.00000000000000000e+00
4.99999999999999958e-02  2.77777777777777790e-01  0.00000000000000000e+00
4.99999999999999958e-02  2.31815175813667285e-01  0.00000000000000000e+00
4.99999999999999958e-02  2.50000000000000000e-01  0.00000000000000000e+00
4.99999999999999958e-02  2.68184824186332715e-01  0.00000000000000000e+00
-5.00000000000000028e-02  3.33333333333333315e-01  0.00000000000000000e+00
-5.00000000000000028e-02  2.87370731369222865e-01  0.00000000000000000e+00
-5.00000000000000028e-02  3.05555555555555580e-01  0.00000000000000000e+00
-5.00000000000000028e-02  3.23740379741888240e-01  0.00000000000000000e+00
4.99999999999999958e-02  3.33333333333333315e-01  0.00000000000000000e+00
4.99999999999999958e-02  2.87370731369222865e-01  0.00000000000000000e+00
4.99999999999999958e-02  3.05555555555555580e-01  0.00000000000000000e+00
4.99999999999999958e-02  3.23740379741888240e-01  0.00000000000000000e+00
-5.00000000000000028e-02  3.88888888888888840e-01  0.00000000000000000e+00
-5.00000000000000028e-02  3.42926286924778334e-01  0.00000000000000000e+00
-5.00000000000000028e-02  3.61111111111111049e-01  0.00000000000000000e+00
-5.00000000000000028e-02  3.79295935297443765e-01  0.00000000000000000e+00
4.99999999999999958e-02  3.88888888888888840e-01  0.00000000000000000e+00
4.99999999999999958e-02  3.42926286924778334e-01  0.00000000000000000e+00
4.99999999999999958e-02  3.61111111111111049e-01  0.00000000000000000e+00
4.99999999999999958e-02  3.79295935297443765e-01  0.00000000000000000e+00
-5.00000000000000028e-02  4.44444444444444420e-01  0.00000000000000000e+00
-5.00000000000000028e-02  3.98481842480333914e-01  0.00000000000000000e+00
-5.00000000000000028e-02  4.16666666666666630e-01  0.00000000000000000e+00
-5.00000000000000028e-02  4.34851490852999345e-01  0.00000000000000000e+00
4.99999999999999958e-02  4.44444444444444420e-01  0.00000000000000000e+00
4.99999999999999958e-02  3.98481842480333914e-01  0.00000000000000000e+00
4.99999999999999958e-02  4.16666666666666630e-01  0.00000000000000000e+00
4.99999999999999958e-02  4.34851490852999345e-01  0.00000000000000000e+00
-5.00000000000000028e-02  5.00000000000000000e-01  0.00000000000000000e+00
-5.00000000000000028e-02  4.54037398035889495e-01  0.00000000000000000e+00
-5.00000000000000028e-02  4.72222222222222210e-01  0.00000000000000000e+00
-5.00000000000000028e-02  4.90407046408554925e-01  0.00000000000000000e+00
4.99999999999999958e-02  5.00000000000000000e-01  0.00000000000000000e+00
4.99999999999999958e-02  4.54037398035889495e-01  0.00000000000000000e+00
4.99999999999999958e-02  4.72222222222222210e-01  0.00000000000000000e+00
4.99999999999999958e-02  4.90407046408554925e-01  0.00000000000000000e+00
-5.00000000000000028e-02  5.55555555555555580e-01  0.00000000000000000e+00
-5.00000000000000028e-02  5.09592953591445075e-01  0.00000000000000000e+00
-5.00000000000000028e-02  5.27777777777777790e-01  0.00000000000000000e+00
-5.00000000000000028e-02  5.45962601964110505e-01  0.00000000000000000e+00
4.99999999999999958e-02  5.55555555555555580e-01  0.00000000000000000e+00
4.99999999999999958e-02  5.09592953591445075e-01  0.00000000000000000e+00
4.99999999999999958e-02  5.27777777777777790e-01  0.00000000000000000e+00
4.99999999999999958e-02  5.45962601964110505e-01  0.00000000000000000e+00
-5.00000000000000028e-02  6.11111111111111049e-01  0.00000000000000000e+00
-5.00000000000000028e-02  5.65148509147000655e-01  0.00000000000000000e+00
-5.00000000000000028e-02  5.83333333333333259e-01  0.00000000000000000e+00
-5.00000000000000028e-02  6.01518157519665975e-01  0.00000000000000000e+00
4.99999999999999958e-02  6.11111111111111049e-01  0.00000000000000000e+00
4.99999999999999958e-02  5.65148509147000655e-01  0.00000000000000000e+00
4.99999999999999958e-02  5.83333333333333259e-01  0.00000000000000000e+00
4.99999999999999958e-02  6.01518157519665975e-01  0.00000000000000000e+00
-5.00000000000000028e-02  6.66666666666666630e-01  0.00000000000000000e+00
-5.00000000000000028e-02  6.20704064702556013e-01  0.00000000000000000e+00
-5.00000000000000028e-02  6.38888888888888840e-01  0.00000000000000000e+00
-5.00000000000000028e-02  6.57073713075221555e-01  0.00000000000000000e+00
4.99999999999999958e-02  6.66666666666666630e-01  0.00000000000000000e+00
4.99999999999999958e-02  6.20704064702556013e-01  0.00000000000000000e+00
4.99999999999999958e-02  6.38888888888888840e-01  0.00000000000000000e+00
4.99999999999999958e-02  6.57073713075221555e-01  0.00000000000000000e+00
-5.00000000000000028e-02  7.22222222222222210e-01  0.00000000000000000e+00
-5.00000000000000028e-02  6.76259620258111704e-01  0.00000000000000000e+00
-5.00000000000000028e-02  6.94444444444444420e-01  0.00000000000000000e+00
-5.00000000000000028e-02  7.12629268630777135e-01  0.00000000000000000e+00
4.99999999999999958e-02  7.22222222222222210e-01  0.00000000000000000e+00
4.99999999999999958e-02  6.76259620258111704e-01  0.00000000000000000e+00
4.99999999999999958e-02  6.94444444444444420e-01  0.00000000000000000e+00
4.99999999999999958e-02  7.12629268630777135e-01  0.00000000000000000e+00
-5.00000000000000028e-02  7.77777777777777679e-01  0.00000000000000000e+00
-5.00000000000000028e-02  7.31815175813667174e-01  0.00000000000000000e+00
-5.00000000000000028e-02  7.50000000000000000e-01  0.00000000000000000e+00
-5.00000000000000028e-02  7.68184824186332604e-01  0.00000000000000000e+00
4.99999999999999958e-02  7.77777777777777679e-01  0.00000000000000000e+00
4.99999999999999958e-02  7.31815175813667174e-01  0.00000000000000000e+00
4.99999999999999958e-02  7.50000000000000000e-01  0.00000000000000000e+00
4.99999999999999958e-02  7.68184824186332604e-01  0.00000000000000000e+00
-5.00000000000000028e-02  8.33333333333333259e-01  0.00000000000000000e+00
-5.00000000000000028e-02  7.87370731369222754e-01  0.00000000000000000e+00
-5.00000000000000028e-02  8.05555555555555469e-01  0.00000000000000000e+00
-5.00000000000000028e-02  8.23740379741888185e-01  0.00000000000000000e+00
4.99999999999999958e-02  8.33333333333333259e-01  0.00000000000000000e+00
4.99999999999999958e-02  7.87370731369222754e-01  0.00000000000000000e+00
4.99999999999999958e-02  8.05555555555555469e-01  0.00000000000000000e+00
4.99999999999999958e-02  8.23740379741888185e-01  0.00000000000000000e+00
-5.00000000000000028e-02  8.88888888888888840e-01  0.00000000000000000e+00
-5.00000000000000028e-02  8.42926286924778334e-01  0.00000000000000000e+00
-5.00000000000000028e-02  8.61111111111111049e-01  0.00000000000000000e+00
-5.00000000000000028e-02  8.79295935297443765e-01  0.00000000000000000e+00
4.99999999999999958e-02  8.88888888888888840e-01  0.00000000000000000e+00
4.99999999999999958e-02  8.42926286924778334e-01  0.00000000000000000e+00
4.99999999999999958e-02  8.61111111111111049e-01  0.00000000000000000e+00
4.99999999999999958e-02  8.79295935297443765e-01  0.00000000000000000e+00
-5.00000000000000028e-02  9.44444444444444420e-01  0.00000000000000000e+00
-5.00000000000000028e-02  8.98481842480333914e-01  0.00000000000000000e+00
-5.00000000000000028e-02  9.16666666666666630e-01  0.00000000000000000e+00
-5.00000000000000028e-02  9.34851490852999345e-01  0.00000000000000000e+00
4.99999999999999958e-02  9.44444444444444420e-01  0.00000000000000000e+00
4.99999999999999958e-02  8.98481842480333914e-01  0.00000000000000000e+00
4.99999999999999958e-02  9.16666666666666630e-01  0.00000000000000000e+00
4.99999999999999958e-02  9.34851490852999345e-01  0.00000000000000000e+00
-5.00000000000000028e-02  1.00000000000000000e+00  0.00000000000000000e+00
-1.66666666666666699e-02  1.00000000000000000e+00  0.00000000000000000e+00
-5.00000000000000028e-02  9.54037398035889495e-01  0.00000000000000000e+00
-5.00000000000000028e-02  9.72222222222222210e-01  0.00000000000000000e+00
-5.00000000000000028e-02  9.90407046408554925e-01  0.00000000000000000e+00
-4.42442278451329538e-02  1.00000000000000000e+00  0.00000000000000000e+00
-3.33333333333333398e-02  1.00000000000000000e+00  0.00000000000000000e+00
-2.24224388215337189e-02  1.00000000000000000e+00  0.00000000000000000e+00
1.66666666666666630e-02  1.00000000000000000e+00  0.00000000000000000e+00
-1.09108945117996226e-02  1.00000000000000000e+00  0.00000000000000000e+00
-3.46944695195361419e-18  1.00000000000000000e+00  0.00000000000000000e+00
1.09108945117996139e-02  1.00000000000000000e+00  0.00000000000000000e+00
4.99999999999999958e-02  1.00000000000000000e+00  0.00000000000000000e+00
4.99999999999999958e-02  9.54037398035889495e-01  0.00000000000000000e+00
4.99999999999999958e-02  9.72222222222222210e-01  0.00000000000000000e+00
4.99999999999999958e-02  9.90407046408554925e-01  0.00000000000000000e+00
2.24224388215337120e-02  1.00000000000000000e+00  0.00000000000000000e+00
3.33333333333333259e-02  1.00000000000000000e+00  0.00000000000000000e+00
4.42442278451329468e-02  1.00000000000000000e+00  0.00000000000000000e+00

CELLS 0 0


CELL_TYPES 0


POINT_DATA 157

VECTORS VertexNormals double

0.00000000000000000e+00 0.00000000000000000e+00 0
0.00000000000000000e+00 0.00000000000000000e+00 0
0.00000000000000000e+00 0.00000000000000000e+00 0
0.00000000000000000e+00 0.00000000000000000e+00 0
0.00000000000000000e+00 0.00000000000000000e+00 0
0.00000000000000000e+00 0.00000000000000000e+00 0
0.00000000000000000e+00 0.00000000000000000e+00 0
0.00000000000000000e+00 0.00000000000000000e+00 0
0.00000000000000000e+00 0.00000000000000000e+00 0
0.00000000000000000e+00 0.00000000000000000e+00 0
0.00000000000000000e+00 0.00000000000000000e+00 0
0.00000000000000000e+00 0.00000000000000000e+00 0
0.00000000000000000e+00 0.00000000000000000e+00 0
0.00000000000000000e+00 0.00000000000000000e+00 0
0.00000000000000000e+00 0.00000000000000000e+00 0
0.00000000000000000e+00 0.00000000000000000e+00 0
0.00000000000000000e+00 0.00000000000000000e+00 0
0.00000000000000000e+00 0.00000000000000000e+00 0
0.00000000000000000e+00 0.00000000000000000e+00 0
0.00000000000000000e+00 0.00000000000000000e+00 0
0.00000000000000000e+00 0.00000000000000000e+00 0
0.00000000000000000e+00 0.00000000000000000e+00 0
0.00000000000000000e+00 0.00000000000000000e+00 0
0.00000000000000000e+00 0.00000000000000000e+00 0
0.00000000000000000e+00 0.00000000000000000e+00 0
0.00000000000000000e+00 0.00000000000000000e+00 0
0.00000000000000000e+00 0.00000000000000000e+00 0
0.00000000000000000e+00 0.00000000000000000e+00 0
0.00000000000000000e+00 0.00000000000000000e+00 0
0.00000000000000000e+00 0.00000000000000000e+00 0
0.00000000000000000e+00 0.00000000000000000e+00 0
0.00000000000000000e+00 0.00000000000000000e+00 0
0.00000000000000000e+00 0.00000000000000000e+00 0
0.00000000000000000e+00 0.00000000000000000e+00 0
0.00000000000000000e+00 0.00000000000000000e+00 0
0.00000000000000000e+00 0.00000000000000000e+00 0
0.00000000000000000e+00 0.00000000000000000e+00 0
0.00000000000000000e+00 0.00000000000000000e+00 0
0.00000000000000000e+00 0.00000000000000000e+00 0
0.00000000000000000e+00 0.00000000000000000e+00 0
0.00000000000000000e+00 0.00000000000000000e+00 0
0.00000000000000000e+00 0.00000000000000000e+00 0
0.00000000000000000e+00 0.00000000000000000e+00 0
0.00000000000000000e+00 0.00000000000000000e+00 0
0.00000000000000000e+00 0.00000000000000000e+00 0
0.00000000000000000e+00 0.00000000000000000e+00 0
0.00000000000000000e+00 0.00000000000000000e+00 0
0.00000000000000000e+00 0.00000000000000000e+00 0
0.00000000000000000e+00 0.00000000000000000e+00 0
0.00000000000000000e+00 0.00000000000000000e+00 0
0.00000000000000000e+00 0.00000000000000000e+00 0
0.00000000000000000e+00 0.00000000000000000e+00 0
0.00000000000000000e+00 0.00000000000000000e+00 0
0.00000000000000000e+00 0.00000000000000000e+00 0
0.00000000000000000e+00 0.00000000000000000e+00 0
0.00000000000000000e+00 0.00000000000000000e+00 0
0.00000000000000000e+00 0.00000000000000000e+00 0
0.00000000000000000e+00 0.00000000000000000e+00 0
0.00000000000000000e+00 0.00000000000000000e+00 0
0.00000000000000000e+00 0.00000000000000000e+00 0
0.00000000000000000e+00 0.00000000000000000e+00 0
0.00000000000000000e+00 0.00000000000000000e+00 0
0.00000000000000000e+00 0.00000000000000000e+00 0
0.00000000000000000e+00 0.00000000000000000e+00 0
0.00000000000000000e+00 0.00000000000000000e+00 0
0.00000000000000000e+00 0.00000000000000000e+00 0
0.00000000000000000e+00 0.00000000000000000e+00 0
0.00000000000000000e+00 0.00000000000000000e+00 0
0.00000000000000000e+00 0.00000000000000000e+00 0
0.00000000000000000e+00 0.00000000000000000e+00 0
0.00000000000000000e+00 0.00000000000000000e+00 0
0.00000000000000000e+00 0.00000000000000000e+00 0
0.00000000000000000e+00 0.00000000000000000e+00 0
0.00000000000000000e+00 0.00000000000000000e+00 0
0.00000000000000000e+00 0.00000000000000000e+00 0
0.00000000000000000e+00 0.00000000000000000e+00 0
0.00000000000000000e+00 0.00000000000000000e+00 0
0.00000000000000000e+00 0.00000000000000000e+00 0
0.00000000000000000e+00 0.00000000000000000e+00 0
0.00000000000000000e+00 0.00000000000000000e+00 0
0.00000000000000000e+00 0.00000000000000000e+00 0
0.00000000000000000e+00 0.00000000000000000e+00 0
0.00000000000000000e+00 0.00000000000000000e+00 0
0.00000000000000000e+00 0.00000000000000000e+00 0
0.00000000000000000e+00 0.00000000000000000e+00 0
0.00000000000000000e+00 0.00000000000000000e+00 0
0.00000000000000000e+00 0.00000000000000000e+00 0
0.00000000000000000e+00 0.00000000000000000e+00 0
0.00000000000000000e+00 0.00000000000000000e+00 0
0.00000000000000000e+00 0.00000000000000000e+00 0
0.00000000000000000e+00 0.00000000000000000e+00 0
0.00000000000000000e+00 0.00000000000000000e+00 0
0.00000000000000000e+00 0.00000000000000000e+00 0
0.00000000000000000e+00 0.00000000000000000e+00 0
0.00000000000000000e+00 0.00000000000000000e+00 0
0.00000000000000000e+00 0.00000000000000000e+00 0
0.00000000000000000e+00 0.00000000000000000e+00 0
0.00000000000000000e+00 0.00000000000000000e+00 0
0.00000000000000000e+00 0.00000000000000000e+00 0
0.00000000000000000e+00 0.00000000000000000e+00 0
0.00000000000000000e+00 0.00000000000000000e+00 0
0.00000000000000000e+00 0.00000000000000000e+00 0
0.00000000000000000e+00 0.00000000000000000e+00 0
0.00000000000000000e+00 0.00000000000000000e+00 0
0.00000000000000000e+00 0.00000000000000000e+00 0
0.00000000000000000e+00 0.00000000000000000e+00 0
0.00000000000000000e+00 0.00000000000000000e+00 0
0.00000000000000000e+00 0.00000000000000000e+00 0
0.00000000000000000e+00 0.00000000000000000e+00 0
0.00000000000000000e+00 0.00000000000000000e+00 0
0.00000000000000000e+00 0.00000000000000000e+00 0
0.00000000000000000e+00 0.00000000000000000e+00 0
0.00000000000000000e+00 0.00000000000000000e+00 0
0.00000000000000000e+00 0.00000000000000000e+00 0
0.00000000000000000e+00 0.00000000000000000e+00 0
0.00000000000000000e+00 0.00000000000000000e+00 0
0.00000000000000000e+00 0.00000000000000000e+00 0
0.00000000000000000e+00 0.00000000000000000e+00 0
0.00000000000000000e+00 0.00000000000000000e+00 0
0.00000000000000000e+00 0.00000000000000000e+00 0
0.00000000000000000e+00 0.00000000000000000e+00 0
0.00000000000000000e+00 0.00000000000000000e+00 0
0.00000000000000000e+00 0.00000000000000000e+00 0
0.00000000000000000e+00 0.00000000000000000e+00 0
0.00000000000000000e+00 0.00000000000000000e+00 0
0.00000000000000000e+00 0.00000000000000000e+00 0
0.00000000000000000e+00 0.00000000000000000e+00 0
0.00000000000000000e+00 0.00000000000000000e+00 0
0.00000000000000000e+00 0.00000000000000000e+00 0
0.00000000000000000e+00 0.00000000000000000e+00 0
0.00000000000000000e+00 0.00000000000000000e+00 0
0.00000000000000000e+00 0.00000000000000000e+00 0
0.00000000000000000e+00 0.00000000000000000e+00 0
0.00000000000000000e+00 0.00000000000000000e+00 0
0.00000000000000000e+00 0.00000000000000000e+00 0
0.00000000000000000e+00 0.00000000000000000e+00 0
0.00000000000000000e+00 0.00000000000000000e+00 0
0.00000000000000000e+00 0.00000000000000000e+00 0
0.00000000000000000e+00 0.00000000000000000e+00 0
0.00000000000000000e+00 0.00000000000000000e+00 0
0.00000000000000000e+00 0.00000000000000000e+00 0
0.00000000000000000e+00 0.00000000000000000e+00 0
0.00000000000000000e+00 0.00000000000000000e+00 0
0.00000000000000000e+00 0.00000000000000000e+00 0
0.00000000000000000e+00 0.00000000000000000e+00 0
0.00000000000000000e+00 0.00000000000000000e+00 0
0.00000000000000000e+00 0.00000000000000000e+00 0
0.00000000000000000e+00 0.00000000000000000e+00 0
0.00000000000000000e+00 0.00000000000000000e+00 0
0.00000000000000000e+00 0.00000000000000000e+00 0
0.00000000000000000e+00 0.00000000000000000e+00 0
0.00000000000000000e+00 0.00000000000000000e+00 0
0.00000000000000000e+00 0.00000000000000000e+00 0
0.00000000000000000e+00 0.00000000000000000e+00 0
0.00000000000000000e+00 0.00000000000000000e+00 0
0.00000000000000000e+00 0.00000000000000000e+00 0
0.00000000000000000e+00 0.00000000000000000e+00 0

VECTORS Displacement double
0.00000000000000000e+00 0.00000000000000000e+00 0
1.58350839548732184e-05 2.02076673715346269e-05 0
2.76268803920337066e-06 4.01138945219846882e-06 0
6.55404524889577808e-06 1.04398588564905393e-05 0
1.20778781098927754e-05 1.68902206331538426e-05 0
0.00000000000000000e+00 0.00000000000000000e+00 0
1.57710477395427185e-05 -1.99951564470605244e-05 0
2.70524714258785576e-06 -3.95506425909967173e-06 0
6.45077780176199632e-06 -1.03303975294701957e-05 0
1.19980860378245574e-05 -1.67212881377369855e-05 0
5.01830950901930139e-05 3.83317024061339716e-05 0
2.03163942309230732e-05 2.35112891151528074e-05 0
3.04983621596272742e-05 2.95882003658468647e-05 0
4.28657669272514456e-05 3.53814877972053577e-05 0
5.00973819140531016e-05 -3.78971044326992435e-05 0
2.02547573829569823e-05 -2.32522087367190957e-05 0
3.04190663130021861e-05 -2.92460076903125837e-05 0
4.27633051388699723e-05 -3.49764010146462928e-05 0
1.03396752039554231e-04 5.38390770258091427e-05 0
5.80892397713625401e-05 4.12140926244059162e-05 0
7.45864094807753309e-05 4.64639905783405306e-05 0
9.29789376627078576e-05 5.13880067269892083e-05 0
1.03322004037753758e-04 -5.31884979810483242e-05 0
5.80144551121420887e-05 -4.07434225641347379e-05 0
7.45287449577426036e-05 -4.59167131331678460e-05 0
9.29164658407853963e-05 -5.07672732215722625e-05 0
1.72014529028224531e-04 6.63937909010316912e-05 0
1.14222180882548203e-04 5.62003352359768268e-05 0
1.35963023384229814e-04 6.04639888158829884e-05 0
1.59201058617948693e-04 6.44283239078242010e-05 0
1.71948327391792768e-04 -6.55410355803304450e-05 0
1.14162655950894170e-04 -5.55205150537847956e-05 0
1.35914649548536486e-04 -5.97151264078420727e-05 0
1.59142848969697035e-04 -6.36089701326436434e-05 0
2.52668876714960070e-04 7.63075146006319226e-05 0
1.85199099331959609e-04 6.82677707495587150e-05 0
2.11026786105814133e-04 7.16237052003004733e-05 0
2.37999226683544625e-04 7.47521336793980008e-05 0
2.52604014521804951e-04 -7.52508496151587573e-05 0
1.85117234329036071e-04 -6.73876406616976265e-05 0
2.10963793865415048e-04 -7.06834892107904085e-05 0
2.37941709271608274e-04 -7.37355350710729504e-05 0
3.42640778759602065e-04 8.41448980173476304e-05 0
2.67629003769127719e-04 7.77938509755103733e-05 0
2.96671426641574316e-04 8.04318731291835267e-05 0
3.26532236444004279e-04 8.28996092941605017e-05 0
3.42596887664547197e-04 -8.28811705690173469e-05 0
2.67549638014919606e-04 -7.67014976280055983e-05 0
2.96588016725902971e-04 -7.92837938311449222e-05 0
3.26483297900882698e-04 -8.16822220706933178e-05 0
4.40027336416622052e-04 9.03665457556482830e-05 0
3.58982631617314480e-04 8.53421963705338986e-05 0
3.90571741444792862e-04 8.74549368137639938e-05 0
4.22789436697978093e-04 8.93908839052804944e-05 0
4.39970255379753075e-04 -8.89036879508578194e-05 0
3.58935013090020121e-04 -8.40320915260930581e-05 0
3.90491783326458303e-04 -8.60758651358464982e-05 0
4.22716274261513033e-04 -8.79604501259402289e-05 0
5.43196436157053638e-04 9.53649644365676935e-05 0
4.57451000833547961e-04 9.13137589863815814e-05 0
4.90964624767036592e-04 9.30178997301890008e-05 0
5.25052428563802854e-04 9.45851532527962395e-05 0
5.43141952393661354e-04 -9.37207066895816130e-05 0
4.57402574905480626e-04 -8.98139516152877385e-05 0
4.90912147937642854e-04 -9.14471033577656721e-05 0
5.24980991261389898e-04 -9.29612494593221701e-05 0
6.51068671781086360e-04 9.95295993649277270e-05 0
5.61493376426254681e-04 9.61323605959652177e-05 0
5.96556216413145798e-04 9.75384896034757633e-05 0
6.32116473109460520e-04 9.88677615775078450e-05 0
6.51012718846108907e-04 -9.77341998127953749e-05 0
5.61447884066474940e-04 -9.44614345013234866e-05 0
5.96522341915354257e-04 -9.58118548488091660e-05 0
6.32074049303940318e-04 -9.70904332849773893e-05 0
7.62915434749955623e-04 1.03210662371891991e-04 0
6.70086645490501620e-04 1.00175240873083424e-04 0
7.06481681323805222e-04 1.01395027140477814e-04 0
7.43316444746535440e-04 1.02592181404601243e-04 0
7.62882674402142521e-04 -1.01288860914261047e-04 0
6.70047826614067672e-04 -9.83650488708728003e-05 0
7.06458766135745859e-04 -9.95404886166870135e-05 0
7.43288790376051868e-04 -1.00691170465699677e-04 0
8.78567373139940407e-04 1.06748051745347700e-04 0
7.82641295607011895e-04 1.03814479854306564e-04 0
8.20252885085195720e-04 1.04962034298000437e-04 0
8.58302842243299975e-04 1.06133025944818283e-04 0
8.78550464368947669e-04 -1.04716507441090888e-04 0
7.82594591656245869e-04 -1.01877619916982575e-04 0
8.20230743498031288e-04 -1.02998057741879358e-04 0
8.58291575287564073e-04 -1.04125424148122654e-04 0
9.98161217362431670e-04 1.10086092879618739e-04 0
8.98967553105551242e-04 1.07351735369280114e-04 0
9.37931426472841012e-04 1.08449841739173593e-04 0
9.77242230025642976e-04 1.09523241266101473e-04 0
9.98164335105099438e-04 -1.07950082890723414e-04 0
8.98937122515818389e-04 -1.05299347991297991e-04 0
9.37896522571606559e-04 -1.06373905969375210e-04 0
9.77241115140631842e-04 -1.07416276113731003e-04 0
1.12132936967465841e-03 1.12908468884384617e-04 0
1.01920076189700431e-03 1.10634389396347427e-04 0
1.05940383223516641e-03 1.11598434913086825e-04 0
1.09987508967463420e-03 1.12467377216554914e-04 0
1.12130020680635610e-03 -1.10655979401843850e-04 0
1.01919884298729349e-03 -1.08466735362790654e-04 0
1.05936369354593467e-03 -1.09383681639155716e-04 0
1.09983319394262274e-03 -1.10230675833725551e-04 0
1.24723808316250717e-03 1.15116500929697869e-04 0
1.14287966883084321e-03 1.13340188515939860e-04 0
1.18398036043038807e-03 1.14114321406677042e-04 0
1.22536251170251675e-03 1.14797307409706190e-04 0
1.24719767030817335e-03 -1.12747037052025696e-04 0
1.14285631145856319e-03 -1.11064739946165015e-04 0
1.18395024935250004e-03 -1.11786250891004332e-04 0
1.22530896003123944e-03 -1.12430744739923193e-04 0
1.37522703834956042e-03 1.16707330210504169e-04 0
1.26918807962138509e-03 1.15432117180429573e-04 0
1.31096797872229625e-03 1.15994981615292374e-04 0
1.35297786003057345e-03 1.16488119533869673e-04 0
1.37519616968849109e-03 -1.14249629472822225e-04 0
1.26915603753259207e-03 -1.13051273932779454e-04 0
1.31095018823428489e-03 -1.13583479682315217e-04 0
1.35295733345444018e-03 -1.14044015340376790e-04 0
1.50454807889448478e-03 1.17572020230695420e-04 0
1.39746597876924715e-03 1.16894760315411551e-04 0
1.43974481083901937e-03 1.17218206199696262e-04 0
1.48214790552305287e-03 1.17471519811474017e-04 0
1.50454308774954928e-03 -1.15007101899918982e-04 0
1.39745229728220751e-03 -1.14435482931212880e-04 0
1.43975132508387385e-03 -1.14727288587785844e-04 0
1.48215052123422376e-03 -1.14933344172184668e-04 0
1.63419263983489147e-03 1.17783585362093806e-04 0
1.52697575027832956e-03 1.17642857523659756e-04 0
1.56939220392229286e-03 1.17709393468317750e-04 0
1.61180688718285683e-03 1.17760430506699406e-04 0
1.63417399756788924e-03 -1.15139279029256619e-04 0
1.52695056036139813e-03 -1.15051283158389578e-04 0
1.56936618079375994e-03 -1.15107407490755285e-04 0
1.61178715719593720e-03 -1.15136086756091165e-04 0
1.76363676666683056e-03 1.17752121938831367e-04 0
1.76365498696123401e-03 4.01536667036074080e-05 0
1.65659335994133112e-03 1.17802283683627324e-04 0
1.69901568292077886e-03 1.17794192167306418e-04 0
1.74132247489503151e-03 1.17756317510161326e-04 0
1.76364031004603845e-03 1.04365384915588167e-04 0
1.76365817224734853e-03 7.89874577764833812e-05 0
1.76365861350409603e-03 5.35642559498750815e-05 0
1.76364702790191789e-03 -3.74837802434104016e-05 0
1.76365478646189964e-03 2.67506558710510186e-05 0
1.76365900878957963e-03 1.34697642019876432e-06 0
1.76365195146520933e-03 -2.40773458492627111e-05 0
1.76364967332799248e-03 -1.15089819049786377e-04 0
1.65657152542337399e-03 -1.15131786257090420e-04 0
1.69898178676949050e-03 -1.15098802325983363e-04 0
1.74130887187780282e-03 -1.15085454614164781e-04 0
1.76364683955401117e-03 -5.08810628626508787e-05 0
1.76365306916957719e-03 -7.62722509194113110e-05 0
1.76365049318807227e-03 -1.01681307038722508e-04 0

VECTORS Force double
1.86437592767139171e-01 8.32793256020075874e-04 0
-8.82984873578434692e-01 5.30512456348131937e-04 0
-8.97179505205646821e-01 -7.22106461544719572e-05 0
7.03635220150484919e+00 -4.87312626789942419e-03 0
3.39307147126525877e+00 -2.31001080276482156e-03 0
8.33009900435285611e-02 8.90743569912477175e-04 0
-4.15447045303005524e-01 4.27736956752685878e-04 0
-4.19510251576621029e-01 -2.78252414732982540e-04 0
3.31301847024532492e+00 -3.28355331980351986e-03 0
1.59786597324115198e+00 -1.56071446691685473e-03 0
-7.89849760571122106e-01 3.27102710996886054e-03 0
-4.94494800381966373e-02 4.39671019177918895e-04 0
5.70497146832383284e-01 -2.35470332235728635e-03 0
9.10493058397999455e+00 -3.66359364825601733e-02 0
-3.67130112661914421e-01 -1.51645120199730461e-04 0
-2.19063885175293134e-02 -5.83147707540810194e-05 0
2.65050778492902150e-01 7.26495493758739234e-05 0
4.23140028107273558e+00 1.71188627960760977e-03 0
8.90805932673921674e+00 -4.99488417612166183e-02 0
9.12473629600926706e-02 -4.46725643932575423e-04 0
-1.74169333749641109e-02 4.63759694545887589e-05 0
2.58410997430527992e-02 2.54888917811077745e-05 0
4.06206113324741658e+00 3.76469881779325707e-02 0
4.21996437658226642e-02 -9.95089918194883718e-07 0
-8.45194585852717360e-03 -2.14763874260705128e-05 0
1.14446126146364527e-02 1.08329082723484935e-05 0
-8.04169320442811419e-01 3.77208874835582462e-03 0
2.74978346442283222e-02 -1.88677589281263783e-05 0
-1.68699231543815512e-02 -1.17189751926173783e-05 0
9.03101449316701110e-02 -5.05301964363519263e-04 0
-3.59980102097066934e-01 -9.14306688557909274e-03 0
1.24457071665604341e-02 -1.51783697833368375e-05 0
-7.99098230262174254e-03 -1.75343513703177522e-04 0
4.02493416115662223e-02 1.15042561078242643e-03 0
-9.14916733399460003e-01 -5.82418084108752172e-06 0
9.27061540548791285e+00 -4.19453441846946162e-02 0
5.80522249912184374e-01 -2.66869081181921085e-03 0
-5.24799675509411909e-02 5.31728506815883290e-04 0
-4.02933413930263939e-01 -1.85142042847073265e-02 0
4.14815376256894197e+00 1.01774243878295853e-01 0
2.59743873902003986e-01 6.08900980951988628e-03 0
-2.37668728585057713e-02 2.12162952930737255e-04 0
4.59132462718679246e-01 1.87436683454932323e-03 0
3.51291615087112907e+00 -4.36896794761775203e-04 0
7.26998677004164406e+00 -9.02594086014380241e-04 0