# vtk DataFile Version 2.0

ASCII

DATASET UNSTRUCTURED_GRID

POINTS 157 double 

-5.00000000000000028e-02  0.00000000000000000e+00  0.00000000000000000e+00
-5.00000000000000028e-02  5.55555555555555525e-02  0.00000000000000000e+00
-5.00000000000000028e-02  9.59295359144507823e-03  0.00000000000000000e+00
-5.00000000000000028e-02  2.77777777777777762e-02  0.00000000000000000e+00
-5.00000000000000028e-02  4.59626019641104708e-02  0.00000000000000000e+00
4.99999999999999958e-02  0.00000000000000000e+00  0.00000000000000000e+00
4.99999999999999958e-02  5.55555555555555525e-02  0.00000000000000000e+00
4.99999999999999958e-02  9.59295359144507823e-03  0.00000000000000000e+00
4.99999999999999958e-02  2.77777777777777762e-02  0.00000000000000000e+00
4.99999999999999958e-02  4.59626019641104708e-02  0.00000000000000000e+00
-5.00000000000000028e-02  1.11111111111111105e-01  0.00000000000000000e+00
-5.00000000000000028e-02  6.51485091470006272e-02  0.00000000000000000e+00
-5.00000000000000028e-02  8.33333333333333287e-02  0.00000000000000000e+00
-5.00000000000000028e-02  1.01518157519666030e-01  0.00000000000000000e+00
4.99999999999999958e-02  1.11111111111111105e-01  0.00000000000000000e+00
4.99999999999999958e-02  6.51485091470006272e-02  0.00000000000000000e+00
4.99999999999999958e-02  8.33333333333333287e-02  0.00000000000000000e+00
4.99999999999999958e-02  1.01518157519666030e-01  0.00000000000000000e+00
-5.00000000000000028e-02  1.66666666666666657e-01  0.00000000000000000e+00
-5.00000000000000028e-02  1.20704064702556180e-01  0.00000000000000000e+00
-5.00000000000000028e-02  1.38888888888888895e-01  0.00000000000000000e+00
-5.00000000000000028e-02  1.57073713075221583e-01  0.00000000000000000e+00
4.99999999999999958e-02  1.66666666666666657e-01  0.00000000000000000e+00
4.99999999999999958e-02  1.20704064702556180e-01  0.00000000000000000e+00
4.99999999999999958e-02  1.38888888888888895e-01  0.00000000000000000e+00
4.99999999999999958e-02  1.57073713075221583e-01  0.00000000000000000e+00
-5.00000000000000028e-02  2.22222222222222210e-01  0.00000000000000000e+00
-5.00000000000000028e-02  1.76259620258111732e-01  0.00000000000000000e+00
-5.00000000000000028e-02  1.94444444444444420e-01  0.00000000000000000e+00
-5.00000000000000028e-02  2.12629268630777135e-01  0.00000000000000000e+00
4.99999999999999958e-02  2.22222222222222210e-01  0.00000000000000000e+00
4.99999999999999958e-02  1.76259620258111732e-01  0.00000000000000000e+00
4.99999999999999958e-02  1.94444444444444420e-01  0.00000000000000000e+00
4.99999999999999958e-02  2.12629268630777135e-01  0.00000000000000000e+00
-5.00000000000000028e-02  2.77777777777777790e-01  0.00000000000000000e+00
-5.00000000000000028e-02  2.31815175813667285e-01  0.00000000000000000e+00
-5.00000000000000028e-02  2.50000000000000000e-01  0.00000000000000000e+00
-5.00000000000000028e-02  2.68184824186332715e-01  0.00000000000000000e+00
4.99999999999999958e-02  2.77777777777777790e-01  0.00000000000000000e+00
4.99999999999999958e-02  2.31815175813667285e-01  0.00000000000000000e+00
4.99999999999999958e-02  2.50000000000000000e-01  0.00000000000000000e+00
4.99999999999999958e-02  2.68184824186332715e-01  0.00000000000000000e+00
-5.00000000000000028e-02  3.33333333333333315e-01  0.00000000000000000e+00
-5.00000000000000028e-02  2.87370731369222865e-01  0.00000000000000000e+00
-5.00000000000000028e-02  3.05555555555555580e-01  0.00000000000000000e+00
-5.00000000000000028e-02  3.23740379741888240e-01  0.00000000000000000e+00
4.99999999999999958e-02  3.33333333333333315e-01  0.00000000000000000e+00
4.99999999999999958e-02  2.87370731369222865e-01  0.00000000000000000e+00
4.99999999999999958e-02  3.05555555555555580e-01  0.00000000000000000e+00
4.99999999999999958e-02  3.23740379741888240e-01  0.00000000000000000e+00
-5.00000000000000028e-02  3.88888888888888840e-01  0.00000000000000000e+00
-5.00000000000000028e-02  3.42926286924778334e-01  0.00000000000000000e+00
-5.00000000000000028e-02  3.61111111111111049e-01  0.00000000000000000e+00
-5.00000000000000028e-02  3.79295935297443765e-01  0.00000000000000000e+00
4.99999999999999958e-02  3.88888888888888840e-01  0.00000000000000000e+00
4.99999999999999958e-02  3.42926286924778334e-01  0.00000000000000000e+00
4.99999999999999958e-02  3.61111111111111049e-01  0.00000000000000000e+00
4.99999999999999958e-02  3.79295935297443765e-01  0.00000000000000000e+00
-5.00000000000000028e-02  4.44444444444444420e-01  0.00000000000000000e+00
-5.00000000000000028e-02  3.98481842480333914e-01  0.00000000000000000e+00
-5.00000000000000028e-02  4.16666666666666630e-01  0.00000000000000000e+00
-5.00000000000000028e-02  4.34851490852999345e-01  0.00000000000000000e+00
4.99999999999999958e-02  4.44444444444444420e-01  0.00000000000000000e+00
4.99999999999999958e-02  3.98481842480333914e-01  0.00000000000000000e+00
4.99999999999999958e-02  4.16666666666666630e-01  0.00000000000000000e+00
4.99999999999999958e-02  4.34851490852999345e-01  0.00000000000000000e+00
-5.00000000000000028e-02  5.00000000000000000e-01  0.00000000000000000e+00
-5.00000000000000028e-02  4.54037398035889495e-01  0.00000000000000000e+00
-5.00000000000000028e-02  4.72222222222222210e-01  0.00000000000000000e+00
-5.00000000000000028e-02  4.90407046408554925e-01  0.00000000000000000e+00
4.99999999999999958e-02  5.00000000000000000e-01  0.00000000000000000e+00
4.99999999999999958e-02  4.54037398035889495e-01  0.00000000000000000e+00
4.99999999999999958e-02  4.72222222222222210e-01  0.00000000000000000e+00
4.99999999999999958e-02  4.90407046408554925e-01  0.00000000000000000e+00
-5.00000000000000028e-02  5.55555555555555580e-01  0.00000000000000000e+00
-5.00000000000000028e-02  5.09592953591445075e-01  0.00000000000000000e+00
-5.00000000000000028e-02  5.27777777777777790e-01  0.00000000000000000e+00
-5.00000000000000028e-02  5.45962601964110505e-01  0.00000000000000000e+00
4.99999999999999958e-02  5.55555555555555580e-01  0.00000000000000000e+00
4.99999999999999958e-02  5.09592953591445075e-01  0.00000000000000000e+00
4.99999999999999958e-02  5.27777777777777790e-01  0.00000000000000000e+00
4.99999999999999958e-02  5.45962601964110505e-01  0.00000000000000000e+00
-5.00000000000000028e-02  6.11111111111111049e-01  0.00000000000000000e+00
-5.00000000000000028e-02  5.65148509147000655e-01  0.00000000000000000e+00
-5.00000000000000028e-02  5.83333333333333259e-01  0.00000000000000000e+00
-5.00000000000000028e-02  6.01518157519665975e-01  0.00000000000000000e+00
4.99999999999999958e-02  6.11111111111111049e-01  0.00000000000000000e+00
4.99999999999999958e-02  5.65148509147000655e-01  0.00000000000000000e+00
4.99999999999999958e-02  5.83333333333333259e-01  0.00000000000000000e+00
4.99999999999999958e-02  6.01518157519665975e-01  0.00000000000000000e+00
-5.00000000000000028e-02  6.66666666666666630e-01  0.00000000000000000e+00
-5.00000000000000028e-02  6.20704064702556013e-01  0.00000000000000000e+00
-5.00000000000000028e-02  6.38888888888888840e-01  0.00000000000000000e+00
-5.00000000000000028e-02  6.57073713075221555e-01  0.00000000000000000e+00
4.99999999999999958e-02  6.66666666666666630e-01  0.00000000000000000e+00
4.99999999999999958e-02  6.20704064702556013e-01  0.00000000000000000e+00
4.99999999999999958e-02  6.38888888888888840e-01  0.00000000000000000e+00
4.99999999999999958e-02  6.57073713075221555e-01  0.00000000000000000e+00
-5.00000000000000028e-02  7.22222222222222210e-01  0.00000000000000000e+00
-5.00000000000000028e-02  6.76259620258111704e-01  0.00000000000000000e+00
-5.00000000000000028e-02  6.94444444444444420e-01  0.00000000000000000e+00
-5.00000000000000028e-02  7.12629268630777135e-01  0.00000000000000000e+00
4.99999999999999958e-02  7.22222222222222210e-01  0.00000000000000000e+00
4.99999999999999958e-02  6.76259620258111704e-01  0.00000000000000000e+00
4.99999999999999958e-02  6.94444444444444420e-01  0.00000000000000000e+00
4.99999999999999958e-02  7.12629268630777135e-01  0.00000000000000000e+00
-5.00000000000000028e-02  7.77777777777777679e-01  0.00000000000000000e+00
-5.00000000000000028e-02  7.31815175813667174e-01  0.00000000000000000e+00
-5.00000000000000028e-02  7.50000000000000000e-01  0.00000000000000000e+00
-5.00000000000000028e-02  7.68184824186332604e-01  0.00000000000000000e+00
4.99999999999999958e-02  7.77777777777777679e-01  0.00000000000000000e+00
4.99999999999999958e-02  7.31815175813667174e-01  0.00000000000000000e+00
4.99999999999999958e-02  7.50000000000000000e-01  0.00000000000000000e+00
4.99999999999999958e-02  7.68184824186332604e-01  0.00000000000000000e+00
-5.00000000000000028e-02  8.33333333333333259e-01  0.00000000000000000e+00
-5.00000000000000028e-02  7.87370731369222754e-01  0.00000000000000000e+00
-5.00000000000000028e-02  8.05555555555555469e-01  0.00000000000000000e+00
-5.00000000000000028e-02  8.23740379741888185e-01  0.00000000000000000e+00
4.99999999999999958e-02  8.33333333333333259e-01  0.00000000000000000e+00
4.99999999999999958e-02  7.87370731369222754e-01  0.00000000000000000e+00
4.99999999999999958e-02  8.05555555555555469e-01  0.00000000000000000e+00
4.99999999999999958e-02  8.23740379741888185e-01  0.00000000000000000e+00
-5.00000000000000028e-02  8.88888888888888840e-01  0.00000000000000000e+00
-5.00000000000000028e-02  8.42926286924778334e-01  0.00000000000000000e+00
-5.00000000000000028e-02  8.61111111111111049e-01  0.00000000000000000e+00
-5.00000000000000028e-02  8.79295935297443765e-01  0.00000000000000000e+00
4.99999999999999958e-02  8.88888888888888840e-01  0.00000000000000000e+00
4.99999999999999958e-02  8.42926286924778334e-01  0.00000000000000000e+00
4.99999999999999958e-02  8.61111111111111049e-01  0.00000000000000000e+00
4.99999999999999958e-02  8.79295935297443765e-01  0.00000000000000000e+00
-5.00000000000000028e-02  9.44444444444444420e-01  0.00000000000000000e+00
-5.00000000000000028e-02  8.98481842480333914e-01  0.00000000000000000e+00
-5.00000000000000028e-02  9.16666666666666630e-01  0.00000000000000000e+00
-5.00000000000000028e-02  9.34851490852999345e-01  0.00000000000000000e+00
4.99999999999999958e-02  9.44444444444444420e-01  0.00000000000000000e+00
4.99999999999999958e-02  8.98481842480333914e-01  0.00000000000000000e+00
4.99999999999999958e-02  9.16666666666666630e-01  0.00000000000000000e+00
4.99999999999999958e-02  9.34851490852999345e-01  0.00000000000000000e+00
-5.00000000000000028e-02  1.00000000000000000e+00  0.00000000000000000e+00
-1.66666666666666699e-02  1.00000000000000000e+00  0.00000000000000000e+00
-5.00000000000000028e-02  9.54037398035889495e-01  0.00000000000000000e+00
-5.00000000000000028e-02  9.72222222222222210e-01  0.00000000000000000e+00
-5.00000000000000028e-02  9.90407046408554925e-01  0.00000000000000000e+00
-4.42442278451329538e-02  1.00000000000000000e+00  0.00000000000000000e+00
-3.33333333333333398e-02  1.00000000000000000e+00  0.00000000000000000e+00
-2.24224388215337189e-02  1.00000000000000000e+00  0.00000000000000000e+00
1.66666666666666630e-02  1.00000000000000000e+00  0.00000000000000000e+00
-1.09108945117996226e-02  1.00000000000000000e+00  0.00000000000000000e+00
-3.46944695195361419e-18  1.00000000000000000e+00  0.00000000000000000e+00
1.09108945117996139e-02  1.00000000000000000e+00  0.00000000000000000e+00
4.99999999999999958e-02  1.00000000000000000e+00  0.00000000000000000e+00
4.99999999999999958e-02  9.54037398035889495e-01  0.00000000000000000e+00
4.99999999999999958e-02  9.72222222222222210e-01  0.00000000000000000e+00
4.99999999999999958e-02  9.90407046408554925e-01  0.00000000000000000e+00
2.24224388215337120e-02  1.00000000000000000e+00  0.00000000000000000e+00
3.33333333333333259e-02  1.00000000000000000e+00  0.00000000000000000e+00
4.42442278451329468e-02  1.00000000000000000e+00  0.00000000000000000e+00

CELLS 0 0


CELL_TYPES 0


POINT_DATA 157

VECTORS VertexNormals double

0.00000000000000000e+00 0.00000000000000000e+00 0
0.00000000000000000e+00 0.00000000000000000e+00 0
0.00000000000000000e+00 0.00000000000000000e+00 0
0.00000000000000000e+00 0.00000000000000000e+00 0
0.00000000000000000e+00 0.00000000000000000e+00 0
0.00000000000000000e+00 0.00000000000000000e+00 0
0.00000000000000000e+00 0.00000000000000000e+00 0
0.00000000000000000e+00 0.00000000000000000e+00 0
0.00000000000000000e+00 0.00000000000000000e+00 0
0.00000000000000000e+00 0.00000000000000000e+00 0
0.00000000000000000e+00 0.00000000000000000e+00 0
0.00000000000000000e+00 0.00000000000000000e+00 0
0.00000000000000000e+00 0.00000000000000000e+00 0
0.00000000000000000e+00 0.00000000000000000e+00 0
0.00000000000000000e+00 0.00000000000000000e+00 0
0.00000000000000000e+00 0.00000000000000000e+00 0
0.00000000000000000e+00 0.00000000000000000e+00 0
0.00000000000000000e+00 0.00000000000000000e+00 0
0.00000000000000000e+00 0.00000000000000000e+00 0
0.00000000000000000e+00 0.00000000000000000e+00 0
0.00000000000000000e+00 0.00000000000000000e+00 0
0.00000000000000000e+00 0.00000000000000000e+00 0
0.00000000000000000e+00 0.00000000000000000e+00 0
0.00000000000000000e+00 0.00000000000000000e+00 0
0.00000000000000000e+00 0.00000000000000000e+00 0
0.00000000000000000e+00 0.00000000000000000e+00 0
0.00000000000000000e+00 0.00000000000000000e+00 0
0.00000000000000000e+00 0.00000000000000000e+00 0
0.00000000000000000e+00 0.00000000000000000e+00 0
0.00000000000000000e+00 0.00000000000000000e+00 0
0.00000000000000000e+00 0.00000000000000000e+00 0
0.00000000000000000e+00 0.00000000000000000e+00 0
0.00000000000000000e+00 0.00000000000000000e+00 0
0.00000000000000000e+00 0.00000000000000000e+00 0
0.00000000000000000e+00 0.00000000000000000e+00 0
0.00000000000000000e+00 0.00000000000000000e+00 0
0.00000000000000000e+00 0.00000000000000000e+00 0
0.00000000000000000e+00 0.00000000000000000e+00 0
0.00000000000000000e+00 0.00000000000000000e+00 0
0.00000000000000000e+00 0.00000000000000000e+00 0
0.00000000000000000e+00 0.00000000000000000e+00 0
0.00000000000000000e+00 0.00000000000000000e+00 0
0.00000000000000000e+00 0.00000000000000000e+00 0
0.00000000000000000e+00 0.00000000000000000e+00 0
0.00000000000000000e+00 0.00000000000000000e+00 0
0.00000000000000000e+00 0.00000000000000000e+00 0
0.00000000000000000e+00 0.00000000000000000e+00 0
0.00000000000000000e+00 0.00000000000000000e+00 0
0.00000000000000000e+00 0.00000000000000000e+00 0
0.00000000000000000e+00 0.00000000000000000e+00 0
0.00000000000000000e+00 0.00000000000000000e+00 0
0.00000000000000000e+00 0.00000000000000000e+00 0
0.00000000000000000e+00 0.00000000000000000e+00 0
0.00000000000000000e+00 0.00000000000000000e+00 0
0.00000000000000000e+00 0.00000000000000000e+00 0
0.00000000000000000e+00 0.00000000000000000e+00 0
0.00000000000000000e+00 0.00000000000000000e+00 0
0.00000000000000000e+00 0.00000000000000000e+00 0
0.00000000000000000e+00 0.00000000000000000e+00 0
0.00000000000000000e+00 0.00000000000000000e+00 0
0.00000000000000000e+00 0.00000000000000000e+00 0
0.00000000000000000e+00 0.00000000000000000e+00 0
0.00000000000000000e+00 0.00000000000000000e+00 0
0.00000000000000000e+00 0.00000000000000000e+00 0
0.00000000000000000e+00 0.00000000000000000e+00 0
0.00000000000000000e+00 0.00000000000000000e+00 0
0.00000000000000000e+00 0.00000000000000000e+00 0
0.00000000000000000e+00 0.00000000000000000e+00 0
0.00000000000000000e+00 0.00000000000000000e+00 0
0.00000000000000000e+00 0.00000000000000000e+00 0
0.00000000000000000e+00 0.00000000000000000e+00 0
0.00000000000000000e+00 0.00000000000000000e+00 0
0.00000000000000000e+00 0.00000000000000000e+00 0
0.00000000000000000e+00 0.00000000000000000e+00 0
0.00000000000000000e+00 0.00000000000000000e+00 0
0.00000000000000000e+00 0.00000000000000000e+00 0
0.00000000000000000e+00 0.00000000000000000e+00 0
0.00000000000000000e+00 0.00000000000000000e+00 0
0.00000000000000000e+00 0.00000000000000000e+00 0
0.00000000000000000e+00 0.00000000000000000e+00 0
0.00000000000000000e+00 0.00000000000000000e+00 0
0.00000000000000000e+00 0.00000000000000000e+00 0
0.00000000000000000e+00 0.00000000000000000e+00 0
0.00000000000000000e+00 0.00000000000000000e+00 0
0.00000000000000000e+00 0.00000000000000000e+00 0
0.00000000000000000e+00 0.00000000000000000e+00 0
0.00000000000000000e+00 0.00000000000000000e+00 0
0.00000000000000000e+00 0.00000000000000000e+00 0
0.00000000000000000e+00 0.00000000000000000e+00 0
0.00000000000000000e+00 0.00000000000000000e+00 0
0.00000000000000000e+00 0.00000000000000000e+00 0
0.00000000000000000e+00 0.00000000000000000e+00 0
0.00000000000000000e+00 0.00000000000000000e+00 0
0.00000000000000000e+00 0.00000000000000000e+00 0
0.00000000000000000e+00 0.00000000000000000e+00 0
0.00000000000000000e+00 0.00000000000000000e+00 0
0.00000000000000000e+00 0.00000000000000000e+00 0
0.00000000000000000e+00 0.00000000000000000e+00 0
0.00000000000000000e+00 0.00000000000000000e+00 0
0.00000000000000000e+00 0.00000000000000000e+00 0
0.00000000000000000e+00 0.00000000000000000e+00 0
0.00000000000000000e+00 0.00000000000000000e+00 0
0.00000000000000000e+00 0.00000000000000000e+00 0
0.00000000000000000e+00 0.00000000000000000e+00 0
0.00000000000000000e+00 0.00000000000000000e+00 0
0.00000000000000000e+00 0.00000000000000000e+00 0
0.00000000000000000e+00 0.00000000000000000e+00 0
0.00000000000000000e+00 0.00000000000000000e+00 0
0.00000000000000000e+00 0.00000000000000000e+00 0
0.00000000000000000e+00 0.00000000000000000e+00 0
0.00000000000000000e+00 0.00000000000000000e+00 0
0.00000000000000000e+00 0.00000000000000000e+00 0
0.00000000000000000e+00 0.00000000000000000e+00 0
0.00000000000000000e+00 0.00000000000000000e+00 0
0.00000000000000000e+00 0.00000000000000000e+00 0
0.00000000000000000e+00 0.00000000000000000e+00 0
0.00000000000000000e+00 0.00000000000000000e+00 0
0.00000000000000000e+00 0.00000000000000000e+00 0
0.00000000000000000e+00 0.00000000000000000e+00 0
0.00000000000000000e+00 0.00000000000000000e+00 0
0.00000000000000000e+00 0.00000000000000000e+00 0
0.00000000000000000e+00 0.00000000000000000e+00 0
0.00000000000000000e+00 0.00000000000000000e+00 0
0.00000000000000000e+00 0.00000000000000000e+00 0
0.00000000000000000e+00 0.00000000000000000e+00 0
0.00000000000000000e+00 0.00000000000000000e+00 0
0.00000000000000000e+00 0.00000000000000000e+00 0
0.00000000000000000e+00 0.00000000000000000e+00 0
0.00000000000000000e+00 0.00000000000000000e+00 0
0.00000000000000000e+00 0.00000000000000000e+00 0
0.00000000000000000e+00 0.00000000000000000e+00 0
0.00000000000000000e+00 0.00000000000000000e+00 0
0.00000000000000000e+00 0.00000000000000000e+00 0
0.00000000000000000e+00 0.00000000000000000e+00 0
0.00000000000000000e+00 0.00000000000000000e+00 0
0.00000000000000000e+00 0.00000000000000000e+00 0
0.00000000000000000e+00 0.00000000000000000e+00 0
0.00000000000000000e+00 0.00000000000000000e+00 0
0.00000000000000000e+00 0.00000000000000000e+00 0
0.00000000000000000e+00 0.00000000000000000e+00 0
0.00000000000000000e+00 0.00000000000000000e+00 0
0.00000000000000000e+00 0.00000000000000000e+00 0
0.00000000000000000e+00 0.00000000000000000e+00 0
0.00000000000000000e+00 0.00000000000000000e+00 0
0.00000000000000000e+00 0.00000000000000000e+00 0
0.00000000000000000e+00 0.00000000000000000e+00 0
0.00000000000000000e+00 0.00000000000000000e+00 0
0.00000000000000000e+00 0.00000000000000000e+00 0
0.00000000000000000e+00 0.00000000000000000e+00 0
0.00000000000000000e+00 0.00000000000000000e+00 0
0.00000000000000000e+00 0.00000000000000000e+00 0
0.00000000000000000e+00 0.00000000000000000e+00 0
0.00000000000000000e+00 0.00000000000000000e+00 0
0.00000000000000000e+00 0.00000000000000000e+00 0
0.00000000000000000e+00 0.00000000000000000e+00 0
0.00000000000000000e+00 0.00000000000000000e+00 0
0.00000000000000000e+00 0.00000000000000000e+00 0

VECTORS Displacement double
0.00000000000000000e+00 0.00000000000000000e+00 0
9.33525211684140076e-06 1.15540536348242852e-05 0
1.64946786681112632e-06 2.34482381039410765e-06 0
3.94792664357028538e-06 6.03587997408625557e-06 0
7.17635597586347014e-06 9.68943344631055311e-06 0
0.00000000000000000e+00 0.00000000000000000e+00 0
9.14863496114876359e-06 -1.11778816613733421e-05 0
1.57383896460014165e-06 -2.25331199822302102e-06 0
3.79340037871193740e-06 -5.82547601328882434e-06 0
6.99323377943316169e-06 -9.36906006889446700e-06 0
2.86901661117481679e-05 2.16665036752089138e-05 0
1.18890419886609841e-05 1.33982689450434693e-05 0
1.76361780066609879e-05 1.67929298765063895e-05 0
2.45964406901590742e-05 2.00285132612841604e-05 0
2.85318137716646085e-05 -2.09492784723974975e-05 0
1.17017075480569282e-05 -1.29701489240381755e-05 0
1.74634592935450964e-05 -1.62555255487134173e-05 0
2.44259618729966818e-05 -1.93722882408941116e-05 0
5.81591222039279360e-05 3.03145062199769219e-05 0
3.31111136106310164e-05 2.32586302505774823e-05 0
4.22657490649911829e-05 2.61452420768609316e-05 0
5.24005384164228418e-05 2.89064645408420226e-05 0
5.80171834765579318e-05 -2.92651825228987982e-05 0
3.29509215878929620e-05 -2.24819216388966705e-05 0
4.21118655548219118e-05 -2.52680598466178205e-05 0
5.22642921694606286e-05 -2.79196004822582520e-05 0
9.62266358300417445e-05 3.76688677316675926e-05 0
6.41474550044191866e-05 3.16835427800621491e-05 0
7.62238477686110952e-05 3.41579489167607249e-05 0
8.91163634377671777e-05 3.64821067971763142e-05 0
9.60739219340141161e-05 -3.62977045324358989e-05 0
6.40123817419599521e-05 -3.05719799056258828e-05 0
7.60730824677718030e-05 -3.29386425543175425e-05 0
8.89610006170338941e-05 -3.51668280341511285e-05 0
1.41426424892615907e-04 4.40202213303773879e-05 0
1.03571605690961960e-04 3.88252032201352067e-05 0
1.18000725836483672e-04 4.09503863237694216e-05 0
1.33158965687557617e-04 4.29828341087442150e-05 0
1.41262937770744918e-04 -4.23359774636715744e-05 0
1.03407896228713484e-04 -3.73978599106431270e-05 0
1.17841156302559924e-04 -3.94153268676114633e-05 0
1.32993330926704610e-04 -4.13481212459246614e-05 0
1.92935587159247555e-04 4.97602211609989904e-05 0
1.49885171777710836e-04 4.50500894089849195e-05 0
1.66431744192740641e-04 4.69641679198417545e-05 0
1.83612404195150945e-04 4.88130085368716033e-05 0
1.92756498406969676e-04 -4.77552123393281335e-05 0
1.49722252753165512e-04 -4.33090481671021986e-05 0
1.66261858339838075e-04 -4.51101706974127884e-05 0
1.83437318258717068e-04 -4.68558287938123250e-05 0
2.50219884603522578e-04 5.51218595575344867e-05 0
2.02420551881900209e-04 5.06961499824704439e-05 0
2.20878202850410035e-04 5.24614575655692739e-05 0
2.39926483115109529e-04 5.42109953461144466e-05 0
2.50055640158323869e-04 -5.27980696688459402e-05 0
2.02245825841916593e-04 -4.86429230092834449e-05 0
2.20707979576957608e-04 -5.03032816589630012e-05 0
2.39762483024097390e-04 -5.19418481448360704e-05 0
3.13119379203255488e-04 6.02804571064713797e-05 0
2.60684051611798887e-04 5.60176450652042509e-05 0
2.80968816695010431e-04 5.77150720953739540e-05 0
3.01877355657670507e-04 5.94035620994782235e-05 0
3.12970805763982752e-04 -5.76557016872573667e-05 0
2.60518490845379101e-04 -5.36461805647957824e-05 0
2.80811084058374904e-04 -5.52460811876196486e-05 0
3.01716025082043643e-04 -5.68298317846819379e-05 0
3.81521620364854005e-04 6.51607095105263329e-05 0
3.24551738252243751e-04 6.11502213491370945e-05 0
3.46657354619677100e-04 6.27549238785033120e-05 0
3.69318089891603862e-04 6.43366221237360198e-05 0
3.81394890774314731e-04 -6.22433965233762203e-05 0
3.24402362570126810e-04 -5.84743283525868970e-05 0
3.46517033207168314e-04 -5.99928460172291365e-05 0
3.69197663652703250e-04 -6.14766066390074118e-05 0
4.54951979096324729e-04 6.96649222847114138e-05 0
3.93844537247190981e-04 6.59710867296250237e-05 0
4.17651518751067171e-04 6.74630709600160353e-05 0
4.41945774761920212e-04 6.89045866884094050e-05 0
4.54817142602675808e-04 -6.64702590300491789e-05 0
3.93725404175203223e-04 -6.29998137899502467e-05 0
4.17516928610184128e-04 -6.43987495119003548e-05 0
4.41807565204939444e-04 -6.57588926298323032e-05 0
5.32981219946165527e-04 7.40239709757200127e-05 0
4.68118236127469472e-04 7.04206592486361974e-05 0
4.93389967133564099e-04 7.18506737748504589e-05 0
5.19177769205788372e-04 7.32751420900604129e-05 0
5.32841380569226350e-04 -7.05775736909976736e-05 0
4.67971602411698185e-04 -6.71759635233783859e-05 0
4.93248232105748525e-04 -6.85201194722039546e-05 0
5.19033307796007339e-04 -6.98675179335294527e-05 0
6.15794245895683609e-04 7.83772346262538489e-05 0
5.46932575059133315e-04 7.47844158738614109e-05 0
5.73782082066626501e-04 7.62278019220112991e-05 0
6.01141469238814495e-04 7.76450817554013916e-05 0
6.15647403427953461e-04 -7.46896370549988709e-05 0
5.46795798585538828e-04 -7.12901197410059460e-05 0
5.73640077345139560e-04 -7.26420617849728628e-05 0
6.00996115397474254e-04 -7.39886258144597533e-05 0
7.03401901282622193e-04 8.24098441808675470e-05 0
6.30584702319496294e-04 7.91013559790426982e-05 0
6.59029762367401191e-04 8.04565861436907164e-05 0
6.87952814283956373e-04 8.17562078539649912e-05 0
7.03277411010424462e-04 -7.84961305706309695e-05 0
6.30445831654414157e-04 -7.53806077510421190e-05 0
6.58900527333145382e-04 -7.66541448325347744e-05 0
6.87829129569484526e-04 -7.78762442028488853e-05 0
7.95222544755338329e-04 8.57339473103413364e-05 0
7.18982556181943554e-04 8.30345814039272994e-05 0
7.48841647572989245e-04 8.41714583952903311e-05 0
7.79127955325819546e-04 8.52274572227223998e-05 0
7.95111627784009277e-04 -8.16119363064620926e-05 0
7.18856919107852248e-04 -7.90928501918400329e-05 0
7.48727474497283725e-04 -8.01613333338920849e-05 0
7.79008955376291837e-04 -8.11354293517649176e-05 0
8.90243776859965226e-04 8.80981770264947908e-05 0
8.11436685356510166e-04 8.62163173600719675e-05 0
8.42405958139685386e-04 8.70344782390104120e-05 0
8.73642863421645482e-04 8.77566959217360957e-05 0
8.90149019323230209e-04 -8.37703097754564588e-05 0
8.11322051050628089e-04 -8.20619694205070705e-05 0
8.42296897639800246e-04 -8.28263313523690552e-05 0
8.73554071476063693e-04 -8.34766183143794858e-05 0
9.87163062289943705e-04 8.93547559811722059e-05 0
9.06868622107651220e-04 8.83965588622643666e-05 0
9.38557494113255865e-04 8.88656308869725163e-05 0
9.70359325245966184e-04 8.92075438981303524e-05 0
9.87076888669105893e-04 -8.48596165134383860e-05 0
9.06778200016771061e-04 -8.40351307155085171e-05 0
9.38453024673206629e-04 -8.44470733953343655e-05 0
9.70260951144971836e-04 -8.47437939497919359e-05 0
1.08457843083870444e-03 8.97365169608051194e-05 0
1.00400584317520618e-03 8.94748727746623196e-05 0
1.03587388118636290e-03 8.96178264080329677e-05 0
1.06775889209427739e-03 8.97045155456505431e-05 0
1.08452270034329538e-03 -8.51294458146835273e-05 0
1.00391749636836503e-03 -8.49426208898745085e-05 0
1.03579887053211286e-03 -8.50577040679027568e-05 0
1.06769480522794758e-03 -8.51185834151831148e-05 0
1.18186116287872958e-03 8.97971487321679062e-05 0
1.18183714634769875e-03 3.14885751366449952e-05 0
1.10140666651061848e-03 8.97714695215107194e-05 0
1.13328334447428971e-03 8.98053280518519033e-05 0
1.16508217921057890e-03 8.97971304141585789e-05 0
1.18186280354887945e-03 7.97316666545974374e-05 0
1.18186713187518532e-03 6.06570143352574197e-05 0
1.18184886438898432e-03 4.15567075584617518e-05 0
1.18180263079358211e-03 -2.68027266367729842e-05 0
1.18183100256010138e-03 2.14293855485134958e-05 0
1.18182661586841591e-03 2.36195180525304133e-06 0
1.18181167238887879e-03 -1.67325844242015158e-05 0
1.18178407493751622e-03 -8.51085033250064825e-05 0
1.10135519000302356e-03 -8.51282810774409875e-05 0
1.13321265410211251e-03 -8.51080893262569750e-05 0
1.16499861237621635e-03 -8.51032617304452069e-05 0
1.18179817901636897e-03 -3.68660329729206542e-05 0
1.18179524296528854e-03 -5.59405284708050634e-05 0
1.18178591003399312e-03 -7.50327179572482820e-05 0

VECTORS Force double
1.80406765357082249e-01 8.39420793031147813e-04 0
-8.55606108163750823e-01 4.65526256015142911e-04 0
-8.68871607472729957e-01 -1.35869550699620152e-04 0
6.81389921346455463e+00 -4.26672367160152964e-03 0
3.28680229370755272e+00 -2.02689048877510020e-03 0
9.12143324907555703e-02 8.89296383917756016e-04 0
-4.51378895686787573e-01 4.17066731115827176e-04 0
-4.56029762276773221e-01 -2.64205614526616330e-04 0
3.59646883913751969e+00 -3.16371206451817027e-03 0
1.73510045954410663e+00 -1.53009753630864833e-03 0
-7.66400331863964834e-01 3.03791611332872562e-03 0
-4.79356632084364312e-02 4.30662447277454553e-04 0
5.52187286639118868e-01 -2.20853461491798183e-03 0
8.81983375743700471e+00 -3.42383180162810982e-02 0
-3.99020635247278488e-01 -3.55063667214632419e-04 0
-2.39072965208718506e-02 -6.97622122615115228e-05 0
2.87405013235619622e-01 1.91060856059287128e-04 0
4.59180747573983439e+00 3.78019712537456132e-03 0
8.63219206691061558e+00 -4.60993442762380051e-02 0
8.86315423811441516e-02 -4.33098000839149313e-04 0
-1.64822928603531593e-02 5.81159366450815449e-05 0
2.38581215674540277e-02 3.80633916729372453e-05 0
4.40495623419526972e+00 4.56874800305163697e-02 0
4.59388633168447275e-02 2.44690832561353663e-05 0
-8.90735900889073548e-03 3.12976220969477847e-06 0
1.18239110190025108e-02 3.12467581521071058e-05 0
-7.81029925582566786e-01 3.27976940736564738e-03 0
2.53821575909400805e-02 -1.84922820583700872e-05 0
-1.57551097820974317e-02 -1.42731484210355127e-05 0
8.80833383038126111e-02 -4.49992591474448274e-04 0
-3.90911429694922263e-01 -1.07401862145273062e-02 0
1.28466977261109203e-02 -5.98941869818401161e-06 0
-8.29596998861882595e-03 -1.92605651142341641e-04 0
4.39471702287382443e-02 1.33040116837343102e-03 0
-8.88017179757215391e-01 -7.01988172685330297e-04 0
8.98759451712838420e+00 -3.65341343741809876e-02 0
5.62399847126424213e-01 -2.32696246755118019e-03 0
-5.04745890641387293e-02 5.13301134699608208e-04 0
-4.37121520543588660e-01 -2.13400639761526512e-02 0
4.49668503449972778e+00 1.19195707143426338e-01 0
2.81410034378073270e-01 7.15868481378820719e-03 0
-2.55706625631394804e-02 2.19616079449317791e-04 0
4.46235958430162893e-01 2.26622256117617153e-03 0
3.40781479506529150e+00 2.11426743578423245e-03 0
7.05159505994480362e+00 4.39365786476966953e-03 0