# vtk DataFile Version 2.0

ASCII

DATASET UNSTRUCTURED_GRID

POINTS 157 double 

-5.00000000000000028e-02  0.00000000000000000e+00  0.00000000000000000e+00
-5.00000000000000028e-02  5.55555555555555525e-02  0.00000000000000000e+00
-5.00000000000000028e-02  9.59295359144507823e-03  0.00000000000000000e+00
-5.00000000000000028e-02  2.77777777777777762e-02  0.00000000000000000e+00
-5.00000000000000028e-02  4.59626019641104708e-02  0.00000000000000000e+00
4.99999999999999958e-02  0.00000000000000000e+00  0.00000000000000000e+00
4.99999999999999958e-02  5.55555555555555525e-02  0.00000000000000000e+00
4.99999999999999958e-02  9.59295359144507823e-03  0.00000000000000000e+00
4.99999999999999958e-02  2.77777777777777762e-02  0.00000000000000000e+00
4.99999999999999958e-02  4.59626019641104708e-02  0.00000000000000000e+00
-5.00000000000000028e-02  1.11111111111111105e-01  0.00000000000000000e+00
-5.00000000000000028e-02  6.51485091470006272e-02  0.00000000000000000e+00
-5.00000000000000028e-02  8.33333333333333287e-02  0.00000000000000000e+00
-5.00000000000000028e-02  1.01518157519666030e-01  0.00000000000000000e+00
4.99999999999999958e-02  1.11111111111111105e-01  0.00000000000000000e+00
4.99999999999999958e-02  6.51485091470006272e-02  0.00000000000000000e+00
4.99999999999999958e-02  8.33333333333333287e-02  0.00000000000000000e+00
4.99999999999999958e-02  1.01518157519666030e-01  0.00000000000000000e+00
-5.00000000000000028e-02  1.66666666666666657e-01  0.00000000000000000e+00
-5.00000000000000028e-02  1.20704064702556180e-01  0.00000000000000000e+00
-5.00000000000000028e-02  1.38888888888888895e-01  0.00000000000000000e+00
-5.00000000000000028e-02  1.57073713075221583e-01  0.00000000000000000e+00
4.99999999999999958e-02  1.66666666666666657e-01  0.00000000000000000e+00
4.99999999999999958e-02  1.20704064702556180e-01  0.00000000000000000e+00
4.99999999999999958e-02  1.38888888888888895e-01  0.00000000000000000e+00
4.99999999999999958e-02  1.57073713075221583e-01  0.00000000000000000e+00
-5.00000000000000028e-02  2.22222222222222210e-01  0.00000000000000000e+00
-5.00000000000000028e-02  1.76259620258111732e-01  0.00000000000000000e+00
-5.00000000000000028e-02  1.94444444444444420e-01  0.00000000000000000e+00
-5.00000000000000028e-02  2.12629268630777135e-01  0.00000000000000000e+00
4.99999999999999958e-02  2.22222222222222210e-01  0.00000000000000000e+00
4.99999999999999958e-02  1.76259620258111732e-01  0.00000000000000000e+00
4.99999999999999958e-02  1.94444444444444420e-01  0.00000000000000000e+00
4.99999999999999958e-02  2.12629268630777135e-01  0.00000000000000000e+00
-5.00000000000000028e-02  2.77777777777777790e-01  0.00000000000000000e+00
-5.00000000000000028e-02  2.31815175813667285e-01  0.00000000000000000e+00
-5.00000000000000028e-02  2.50000000000000000e-01  0.00000000000000000e+00
-5.00000000000000028e-02  2.68184824186332715e-01  0.00000000000000000e+00
4.99999999999999958e-02  2.77777777777777790e-01  0.00000000000000000e+00
4.99999999999999958e-02  2.31815175813667285e-01  0.00000000000000000e+00
4.99999999999999958e-02  2.50000000000000000e-01  0.00000000000000000e+00
4.99999999999999958e-02  2.68184824186332715e-01  0.00000000000000000e+00
-5.00000000000000028e-02  3.33333333333333315e-01  0.00000000000000000e+00
-5.00000000000000028e-02  2.87370731369222865e-01  0.00000000000000000e+00
-5.00000000000000028e-02  3.05555555555555580e-01  0.00000000000000000e+00
-5.00000000000000028e-02  3.23740379741888240e-01  0.00000000000000000e+00
4.99999999999999958e-02  3.33333333333333315e-01  0.00000000000000000e+00
4.99999999999999958e-02  2.87370731369222865e-01  0.00000000000000000e+00
4.99999999999999958e-02  3.05555555555555580e-01  0.00000000000000000e+00
4.99999999999999958e-02  3.23740379741888240e-01  0.00000000000000000e+00
-5.00000000000000028e-02  3.88888888888888840e-01  0.00000000000000000e+00
-5.00000000000000028e-02  3.42926286924778334e-01  0.00000000000000000e+00
-5.00000000000000028e-02  3.61111111111111049e-01  0.00000000000000000e+00
-5.00000000000000028e-02  3.79295935297443765e-01  0.00000000000000000e+00
4.99999999999999958e-02  3.88888888888888840e-01  0.00000000000000000e+00
4.99999999999999958e-02  3.42926286924778334e-01  0.00000000000000000e+00
4.99999999999999958e-02  3.61111111111111049e-01  0.00000000000000000e+00
4.99999999999999958e-02  3.79295935297443765e-01  0.00000000000000000e+00
-5.00000000000000028e-02  4.44444444444444420e-01  0.00000000000000000e+00
-5.00000000000000028e-02  3.98481842480333914e-01  0.00000000000000000e+00
-5.00000000000000028e-02  4.16666666666666630e-01  0.00000000000000000e+00
-5.00000000000000028e-02  4.34851490852999345e-01  0.00000000000000000e+00
4.99999999999999958e-02  4.44444444444444420e-01  0.00000000000000000e+00
4.99999999999999958e-02  3.98481842480333914e-01  0.00000000000000000e+00
4.99999999999999958e-02  4.16666666666666630e-01  0.00000000000000000e+00
4.99999999999999958e-02  4.34851490852999345e-01  0.00000000000000000e+00
-5.00000000000000028e-02  5.00000000000000000e-01  0.00000000000000000e+00
-5.00000000000000028e-02  4.54037398035889495e-01  0.00000000000000000e+00
-5.00000000000000028e-02  4.72222222222222210e-01  0.00000000000000000e+00
-5.00000000000000028e-02  4.90407046408554925e-01  0.00000000000000000e+00
4.99999999999999958e-02  5.00000000000000000e-01  0.00000000000000000e+00
4.99999999999999958e-02  4.54037398035889495e-01  0.00000000000000000e+00
4.99999999999999958e-02  4.72222222222222210e-01  0.00000000000000000e+00
4.99999999999999958e-02  4.90407046408554925e-01  0.00000000000000000e+00
-5.00000000000000028e-02  5.55555555555555580e-01  0.00000000000000000e+00
-5.00000000000000028e-02  5.09592953591445075e-01  0.00000000000000000e+00
-5.00000000000000028e-02  5.27777777777777790e-01  0.00000000000000000e+00
-5.00000000000000028e-02  5.45962601964110505e-01  0.00000000000000000e+00
4.99999999999999958e-02  5.55555555555555580e-01  0.00000000000000000e+00
4.99999999999999958e-02  5.09592953591445075e-01  0.00000000000000000e+00
4.99999999999999958e-02  5.27777777777777790e-01  0.00000000000000000e+00
4.99999999999999958e-02  5.45962601964110505e-01  0.00000000000000000e+00
-5.00000000000000028e-02  6.11111111111111049e-01  0.00000000000000000e+00
-5.00000000000000028e-02  5.65148509147000655e-01  0.00000000000000000e+00
-5.00000000000000028e-02  5.83333333333333259e-01  0.00000000000000000e+00
-5.00000000000000028e-02  6.01518157519665975e-01  0.00000000000000000e+00
4.99999999999999958e-02  6.11111111111111049e-01  0.00000000000000000e+00
4.99999999999999958e-02  5.65148509147000655e-01  0.00000000000000000e+00
4.99999999999999958e-02  5.83333333333333259e-01  0.00000000000000000e+00
4.99999999999999958e-02  6.01518157519665975e-01  0.00000000000000000e+00
-5.00000000000000028e-02  6.66666666666666630e-01  0.00000000000000000e+00
-5.00000000000000028e-02  6.20704064702556013e-01  0.00000000000000000e+00
-5.00000000000000028e-02  6.38888888888888840e-01  0.00000000000000000e+00
-5.00000000000000028e-02  6.57073713075221555e-01  0.00000000000000000e+00
4.99999999999999958e-02  6.66666666666666630e-01  0.00000000000000000e+00
4.99999999999999958e-02  6.20704064702556013e-01  0.00000000000000000e+00
4.99999999999999958e-02  6.38888888888888840e-01  0.00000000000000000e+00
4.99999999999999958e-02  6.57073713075221555e-01  0.00000000000000000e+00
-5.00000000000000028e-02  7.22222222222222210e-01  0.00000000000000000e+00
-5.00000000000000028e-02  6.76259620258111704e-01  0.00000000000000000e+00
-5.00000000000000028e-02  6.94444444444444420e-01  0.00000000000000000e+00
-5.00000000000000028e-02  7.12629268630777135e-01  0.00000000000000000e+00
4.99999999999999958e-02  7.22222222222222210e-01  0.00000000000000000e+00
4.99999999999999958e-02  6.76259620258111704e-01  0.00000000000000000e+00
4.99999999999999958e-02  6.94444444444444420e-01  0.00000000000000000e+00
4.99999999999999958e-02  7.12629268630777135e-01  0.00000000000000000e+00
-5.00000000000000028e-02  7.77777777777777679e-01  0.00000000000000000e+00
-5.00000000000000028e-02  7.31815175813667174e-01  0.00000000000000000e+00
-5.00000000000000028e-02  7.50000000000000000e-01  0.00000000000000000e+00
-5.00000000000000028e-02  7.68184824186332604e-01  0.00000000000000000e+00
4.99999999999999958e-02  7.77777777777777679e-01  0.00000000000000000e+00
4.99999999999999958e-02  7.31815175813667174e-01  0.00000000000000000e+00
4.99999999999999958e-02  7.50000000000000000e-01  0.00000000000000000e+00
4.99999999999999958e-02  7.68184824186332604e-01  0.00000000000000000e+00
-5.00000000000000028e-02  8.33333333333333259e-01  0.00000000000000000e+00
-5.00000000000000028e-02  7.87370731369222754e-01  0.00000000000000000e+00
-5.00000000000000028e-02  8.05555555555555469e-01  0.00000000000000000e+00
-5.00000000000000028e-02  8.23740379741888185e-01  0.00000000000000000e+00
4.99999999999999958e-02  8.33333333333333259e-01  0.00000000000000000e+00
4.99999999999999958e-02  7.87370731369222754e-01  0.00000000000000000e+00
4.99999999999999958e-02  8.05555555555555469e-01  0.00000000000000000e+00
4.99999999999999958e-02  8.23740379741888185e-01  0.00000000000000000e+00
-5.00000000000000028e-02  8.88888888888888840e-01  0.00000000000000000e+00
-5.00000000000000028e-02  8.42926286924778334e-01  0.00000000000000000e+00
-5.00000000000000028e-02  8.61111111111111049e-01  0.00000000000000000e+00
-5.00000000000000028e-02  8.79295935297443765e-01  0.00000000000000000e+00
4.99999999999999958e-02  8.88888888888888840e-01  0.00000000000000000e+00
4.99999999999999958e-02  8.42926286924778334e-01  0.00000000000000000e+00
4.99999999999999958e-02  8.61111111111111049e-01  0.00000000000000000e+00
4.99999999999999958e-02  8.79295935297443765e-01  0.00000000000000000e+00
-5.00000000000000028e-02  9.44444444444444420e-01  0.00000000000000000e+00
-5.00000000000000028e-02  8.98481842480333914e-01  0.00000000000000000e+00
-5.00000000000000028e-02  9.16666666666666630e-01  0.00000000000000000e+00
-5.00000000000000028e-02  9.34851490852999345e-01  0.00000000000000000e+00
4.99999999999999958e-02  9.44444444444444420e-01  0.00000000000000000e+00
4.99999999999999958e-02  8.98481842480333914e-01  0.00000000000000000e+00
4.99999999999999958e-02  9.16666666666666630e-01  0.00000000000000000e+00
4.99999999999999958e-02  9.34851490852999345e-01  0.00000000000000000e+00
-5.00000000000000028e-02  1.00000000000000000e+00  0.00000000000000000e+00
-1.66666666666666699e-02  1.00000000000000000e+00  0.00000000000000000e+00
-5.00000000000000028e-02  9.54037398035889495e-01  0.00000000000000000e+00
-5.00000000000000028e-02  9.72222222222222210e-01  0.00000000000000000e+00
-5.00000000000000028e-02  9.90407046408554925e-01  0.00000000000000000e+00
-4.42442278451329538e-02  1.00000000000000000e+00  0.00000000000000000e+00
-3.33333333333333398e-02  1.00000000000000000e+00  0.00000000000000000e+00
-2.24224388215337189e-02  1.00000000000000000e+00  0.00000000000000000e+00
1.66666666666666630e-02  1.00000000000000000e+00  0.00000000000000000e+00
-1.09108945117996226e-02  1.00000000000000000e+00  0.00000000000000000e+00
-3.46944695195361419e-18  1.00000000000000000e+00  0.00000000000000000e+00
1.09108945117996139e-02  1.00000000000000000e+00  0.00000000000000000e+00
4.99999999999999958e-02  1.00000000000000000e+00  0.00000000000000000e+00
4.99999999999999958e-02  9.54037398035889495e-01  0.00000000000000000e+00
4.99999999999999958e-02  9.72222222222222210e-01  0.00000000000000000e+00
4.99999999999999958e-02  9.90407046408554925e-01  0.00000000000000000e+00
2.24224388215337120e-02  1.00000000000000000e+00  0.00000000000000000e+00
3.33333333333333259e-02  1.00000000000000000e+00  0.00000000000000000e+00
4.42442278451329468e-02  1.00000000000000000e+00  0.00000000000000000e+00

CELLS 0 0


CELL_TYPES 0


POINT_DATA 157

VECTORS VertexNormals double

0.00000000000000000e+00 0.00000000000000000e+00 0
0.00000000000000000e+00 0.00000000000000000e+00 0
0.00000000000000000e+00 0.00000000000000000e+00 0
0.00000000000000000e+00 0.00000000000000000e+00 0
0.00000000000000000e+00 0.00000000000000000e+00 0
0.00000000000000000e+00 0.00000000000000000e+00 0
0.00000000000000000e+00 0.00000000000000000e+00 0
0.00000000000000000e+00 0.00000000000000000e+00 0
0.00000000000000000e+00 0.00000000000000000e+00 0
0.00000000000000000e+00 0.00000000000000000e+00 0
0.00000000000000000e+00 0.00000000000000000e+00 0
0.00000000000000000e+00 0.00000000000000000e+00 0
0.00000000000000000e+00 0.00000000000000000e+00 0
0.00000000000000000e+00 0.00000000000000000e+00 0
0.00000000000000000e+00 0.00000000000000000e+00 0
0.00000000000000000e+00 0.00000000000000000e+00 0
0.00000000000000000e+00 0.00000000000000000e+00 0
0.00000000000000000e+00 0.00000000000000000e+00 0
0.00000000000000000e+00 0.00000000000000000e+00 0
0.00000000000000000e+00 0.00000000000000000e+00 0
0.00000000000000000e+00 0.00000000000000000e+00 0
0.00000000000000000e+00 0.00000000000000000e+00 0
0.00000000000000000e+00 0.00000000000000000e+00 0
0.00000000000000000e+00 0.00000000000000000e+00 0
0.00000000000000000e+00 0.00000000000000000e+00 0
0.00000000000000000e+00 0.00000000000000000e+00 0
0.00000000000000000e+00 0.00000000000000000e+00 0
0.00000000000000000e+00 0.00000000000000000e+00 0
0.00000000000000000e+00 0.00000000000000000e+00 0
0.00000000000000000e+00 0.00000000000000000e+00 0
0.00000000000000000e+00 0.00000000000000000e+00 0
0.00000000000000000e+00 0.00000000000000000e+00 0
0.00000000000000000e+00 0.00000000000000000e+00 0
0.00000000000000000e+00 0.00000000000000000e+00 0
0.00000000000000000e+00 0.00000000000000000e+00 0
0.00000000000000000e+00 0.00000000000000000e+00 0
0.00000000000000000e+00 0.00000000000000000e+00 0
0.00000000000000000e+00 0.00000000000000000e+00 0
0.00000000000000000e+00 0.00000000000000000e+00 0
0.00000000000000000e+00 0.00000000000000000e+00 0
0.00000000000000000e+00 0.00000000000000000e+00 0
0.00000000000000000e+00 0.00000000000000000e+00 0
0.00000000000000000e+00 0.00000000000000000e+00 0
0.00000000000000000e+00 0.00000000000000000e+00 0
0.00000000000000000e+00 0.00000000000000000e+00 0
0.00000000000000000e+00 0.00000000000000000e+00 0
0.00000000000000000e+00 0.00000000000000000e+00 0
0.00000000000000000e+00 0.00000000000000000e+00 0
0.00000000000000000e+00 0.00000000000000000e+00 0
0.00000000000000000e+00 0.00000000000000000e+00 0
0.00000000000000000e+00 0.00000000000000000e+00 0
0.00000000000000000e+00 0.00000000000000000e+00 0
0.00000000000000000e+00 0.00000000000000000e+00 0
0.00000000000000000e+00 0.00000000000000000e+00 0
0.00000000000000000e+00 0.00000000000000000e+00 0
0.00000000000000000e+00 0.00000000000000000e+00 0
0.00000000000000000e+00 0.00000000000000000e+00 0
0.00000000000000000e+00 0.00000000000000000e+00 0
0.00000000000000000e+00 0.00000000000000000e+00 0
0.00000000000000000e+00 0.00000000000000000e+00 0
0.00000000000000000e+00 0.00000000000000000e+00 0
0.00000000000000000e+00 0.00000000000000000e+00 0
0.00000000000000000e+00 0.00000000000000000e+00 0
0.00000000000000000e+00 0.00000000000000000e+00 0
0.00000000000000000e+00 0.00000000000000000e+00 0
0.00000000000000000e+00 0.00000000000000000e+00 0
0.00000000000000000e+00 0.00000000000000000e+00 0
0.00000000000000000e+00 0.00000000000000000e+00 0
0.00000000000000000e+00 0.00000000000000000e+00 0
0.00000000000000000e+00 0.00000000000000000e+00 0
0.00000000000000000e+00 0.00000000000000000e+00 0
0.00000000000000000e+00 0.00000000000000000e+00 0
0.00000000000000000e+00 0.00000000000000000e+00 0
0.00000000000000000e+00 0.00000000000000000e+00 0
0.00000000000000000e+00 0.00000000000000000e+00 0
0.00000000000000000e+00 0.00000000000000000e+00 0
0.00000000000000000e+00 0.00000000000000000e+00 0
0.00000000000000000e+00 0.00000000000000000e+00 0
0.00000000000000000e+00 0.00000000000000000e+00 0
0.00000000000000000e+00 0.00000000000000000e+00 0
0.00000000000000000e+00 0.00000000000000000e+00 0
0.00000000000000000e+00 0.00000000000000000e+00 0
0.00000000000000000e+00 0.00000000000000000e+00 0
0.00000000000000000e+00 0.00000000000000000e+00 0
0.00000000000000000e+00 0.00000000000000000e+00 0
0.00000000000000000e+00 0.00000000000000000e+00 0
0.00000000000000000e+00 0.00000000000000000e+00 0
0.00000000000000000e+00 0.00000000000000000e+00 0
0.00000000000000000e+00 0.00000000000000000e+00 0
0.00000000000000000e+00 0.00000000000000000e+00 0
0.00000000000000000e+00 0.00000000000000000e+00 0
0.00000000000000000e+00 0.00000000000000000e+00 0
0.00000000000000000e+00 0.00000000000000000e+00 0
0.00000000000000000e+00 0.00000000000000000e+00 0
0.00000000000000000e+00 0.00000000000000000e+00 0
0.00000000000000000e+00 0.00000000000000000e+00 0
0.00000000000000000e+00 0.00000000000000000e+00 0
0.00000000000000000e+00 0.00000000000000000e+00 0
0.00000000000000000e+00 0.00000000000000000e+00 0
0.00000000000000000e+00 0.00000000000000000e+00 0
0.00000000000000000e+00 0.00000000000000000e+00 0
0.00000000000000000e+00 0.00000000000000000e+00 0
0.00000000000000000e+00 0.00000000000000000e+00 0
0.00000000000000000e+00 0.00000000000000000e+00 0
0.00000000000000000e+00 0.00000000000000000e+00 0
0.00000000000000000e+00 0.00000000000000000e+00 0
0.00000000000000000e+00 0.00000000000000000e+00 0
0.00000000000000000e+00 0.00000000000000000e+00 0
0.00000000000000000e+00 0.00000000000000000e+00 0
0.00000000000000000e+00 0.00000000000000000e+00 0
0.00000000000000000e+00 0.00000000000000000e+00 0
0.00000000000000000e+00 0.00000000000000000e+00 0
0.00000000000000000e+00 0.00000000000000000e+00 0
0.00000000000000000e+00 0.00000000000000000e+00 0
0.00000000000000000e+00 0.00000000000000000e+00 0
0.00000000000000000e+00 0.00000000000000000e+00 0
0.00000000000000000e+00 0.00000000000000000e+00 0
0.00000000000000000e+00 0.00000000000000000e+00 0
0.00000000000000000e+00 0.00000000000000000e+00 0
0.00000000000000000e+00 0.00000000000000000e+00 0
0.00000000000000000e+00 0.00000000000000000e+00 0
0.00000000000000000e+00 0.00000000000000000e+00 0
0.00000000000000000e+00 0.00000000000000000e+00 0
0.00000000000000000e+00 0.00000000000000000e+00 0
0.00000000000000000e+00 0.00000000000000000e+00 0
0.00000000000000000e+00 0.00000000000000000e+00 0
0.00000000000000000e+00 0.00000000000000000e+00 0
0.00000000000000000e+00 0.00000000000000000e+00 0
0.00000000000000000e+00 0.00000000000000000e+00 0
0.00000000000000000e+00 0.00000000000000000e+00 0
0.00000000000000000e+00 0.00000000000000000e+00 0
0.00000000000000000e+00 0.00000000000000000e+00 0
0.00000000000000000e+00 0.00000000000000000e+00 0
0.00000000000000000e+00 0.00000000000000000e+00 0
0.00000000000000000e+00 0.00000000000000000e+00 0
0.00000000000000000e+00 0.00000000000000000e+00 0
0.00000000000000000e+00 0.00000000000000000e+00 0
0.00000000000000000e+00 0.00000000000000000e+00 0
0.00000000000000000e+00 0.00000000000000000e+00 0
0.00000000000000000e+00 0.00000000000000000e+00 0
0.00000000000000000e+00 0.00000000000000000e+00 0
0.00000000000000000e+00 0.00000000000000000e+00 0
0.00000000000000000e+00 0.00000000000000000e+00 0
0.00000000000000000e+00 0.00000000000000000e+00 0
0.00000000000000000e+00 0.00000000000000000e+00 0
0.00000000000000000e+00 0.00000000000000000e+00 0
0.00000000000000000e+00 0.00000000000000000e+00 0
0.00000000000000000e+00 0.00000000000000000e+00 0
0.00000000000000000e+00 0.00000000000000000e+00 0
0.00000000000000000e+00 0.00000000000000000e+00 0
0.00000000000000000e+00 0.00000000000000000e+00 0
0.00000000000000000e+00 0.00000000000000000e+00 0
0.00000000000000000e+00 0.00000000000000000e+00 0
0.00000000000000000e+00 0.00000000000000000e+00 0
0.00000000000000000e+00 0.00000000000000000e+00 0
0.00000000000000000e+00 0.00000000000000000e+00 0
0.00000000000000000e+00 0.00000000000000000e+00 0

VECTORS Displacement double
0.00000000000000000e+00 0.00000000000000000e+00 0
2.05904505629955920e-05 2.76024719151758630e-05 0
3.58518342986520384e-06 5.34303630822632331e-06 0
8.42554306024803748e-06 1.40760309718231917e-05 0
1.56407080327991446e-05 2.29724113169779373e-05 0
0.00000000000000000e+00 0.00000000000000000e+00 0
2.04808561221242569e-05 -2.73136527990770193e-05 0
3.53245601017201963e-06 -5.27573954832783991e-06 0
8.31907399021806735e-06 -1.39193405260971679e-05 0
1.55246530725822994e-05 -2.27313162065061353e-05 0
6.68878815230268547e-05 5.40038147925413369e-05 0
2.65281710851118986e-05 3.22627516845374807e-05 0
4.01472414591984679e-05 4.09845001116520752e-05 0
5.68756208115365843e-05 4.95375931606828267e-05 0
6.67798974794821216e-05 -5.34371504398633901e-05 0
2.64205694709585020e-05 -3.19228691899657062e-05 0
4.00297712783743981e-05 -4.05475924085565057e-05 0
5.67468502122248506e-05 -4.90152038183118145e-05 0
1.41607325831483730e-04 7.91723626256388472e-05 0
7.77817097694236879e-05 5.84427377353149291e-05 0
1.00745973187961449e-04 6.67479142885342891e-05 0
1.26703419803463649e-04 7.49193857905808156e-05 0
1.41520139587189586e-04 -7.83143337788217569e-05 0
7.76831034787384307e-05 -5.78260591103689823e-05 0
1.00667578532682742e-04 -6.60394303693003599e-05 0
1.26634132886412168e-04 -7.41116845863717581e-05 0
2.43623556215363774e-04 1.02877037967901905e-04 0
1.57294923278265895e-04 8.33843270947016117e-05 0
1.89288469802468515e-04 9.12425911075045965e-05 0
2.24125593938766780e-04 9.89082312736081566e-05 0
2.43534947831549388e-04 -1.01795533918550509e-04 0
1.57204814439210444e-04 -8.24807405242856598e-05 0
1.89174899642439418e-04 -9.02686645320337406e-05 0
2.24022477713576478e-04 -9.78713141847431620e-05 0
3.71074696079672138e-04 1.24599117431286514e-04 0
2.63905341782441529e-04 1.06779711262999441e-04 0
3.04332938256225195e-04 1.14004626224533303e-04 0
3.47359384028981567e-04 1.21002106359741508e-04 0
3.70971447990171431e-04 -1.23247699631695562e-04 0
2.63813053956441260e-04 -1.05651331726495945e-04 0
3.04248998596433752e-04 -1.12784355637351609e-04 0
3.47262850094933124e-04 -1.19694098011942878e-04 0
5.21443859808674252e-04 1.44071107787284398e-04 0
3.95484108355260348e-04 1.28132818969902622e-04 0
4.43578035565538986e-04 1.34635547185289566e-04 0
4.93958919448964843e-04 1.40882211838719605e-04 0
5.21329027337616609e-04 -1.42455269179433426e-04 0
3.95371406798680075e-04 -1.26735009203217072e-04 0
4.43456514672699645e-04 -1.33151010881895184e-04 0
4.93845662376142134e-04 -1.39310682939413916e-04 0
6.91976060021300284e-04 1.61139743915492849e-04 0
5.49524158125062217e-04 1.47188220510475006e-04 0
6.04375271182941865e-04 1.52904116862695097e-04 0
6.61216345886474362e-04 1.58361703946541721e-04 0
6.91872681200007378e-04 -1.59269036548050931e-04 0
5.49412160396316553e-04 -1.45527935408081536e-04 0
6.04255398200612506e-04 -1.51157043486291651e-04 0
6.61104104200826059e-04 -1.56533136317480999e-04 0
8.79945676538490301e-04 1.75837545493682780e-04 0
7.23264475945703577e-04 1.63842990294263213e-04 0
7.83957575978376595e-04 1.68776047227565295e-04 0
8.46382475558977521e-04 1.73461739969465664e-04 0
8.79870005601008959e-04 -1.73716328363130091e-04 0
7.23167609747538522e-04 -1.61933087468244381e-04 0
7.83874792298471456e-04 -1.66785105099494289e-04 0
8.46296809896491739e-04 -1.71383922778075600e-04 0
1.08276568614716889e-03 1.88401567023859656e-04 0
9.13973949562648671e-04 1.78154521221844252e-04 0
9.79638487533429116e-04 1.82363011038029434e-04 0
1.04676217233900799e-03 1.86369774478308339e-04 0
1.08269094405996245e-03 -1.86044208087406121e-04 0
9.13890459006527225e-04 -1.75989525199170597e-04 0
9.79553646073217038e-04 -1.80130420586577906e-04 0
1.04669510172497788e-03 -1.84059174091521209e-04 0
1.29830444207317485e-03 1.98938104309206439e-04 0
1.11911900831431648e-03 1.90372327387763640e-04 0
1.18907923174666331e-03 1.93935080919828922e-04 0
1.26027452845037810e-03 1.97264432413589717e-04 0
1.29824039259562526e-03 -1.96358586874644496e-04 0
1.11905211364301594e-03 -1.87971419429368265e-04 0
1.18899765351806520e-03 -1.91460957720715789e-04 0
1.26019963999303604e-03 -1.94726875985443436e-04 0
1.52434103317882299e-03 2.07253091189968461e-04 0
1.33667500586257134e-03 2.00541958436211679e-04 0
1.41017366108353256e-03 2.03390728742959954e-04 0
1.48467368969375430e-03 2.05987415009974199e-04 0
1.52426580171695467e-03 -2.04471779629462159e-04 0
1.33660280782970861e-03 -1.97919948381312759e-04 0
1.41010766593606136e-03 -2.00700069227119045e-04 0
1.48460078077198914e-03 -2.03236192489539855e-04 0
1.75812801201085788e-03 2.13251785895808061e-04 0
1.56424783018930527e-03 2.08452099973877242e-04 0
1.64046380146442130e-03 2.10528555698292314e-04 0
1.71732588491110903e-03 2.12369019248581582e-04 0
1.75804690759883125e-03 -2.10285271448362320e-04 0
1.56416726641647828e-03 -2.05635853278523920e-04 0
1.64037784203938239e-03 -2.07650193379678812e-04 0
1.71724757477147703e-03 -2.09433901531384998e-04 0
1.99705750152054341e-03 2.17285782546764019e-04 0
1.79907976467586959e-03 2.14077274679176665e-04 0
1.87711211346301026e-03 2.15492327259979576e-04 0
1.95554279314251239e-03 2.16710875658123760e-04 0
1.99696415324064191e-03 -2.14109535618951677e-04 0
1.79899996945294383e-03 -2.11075916296116477e-04 0
1.87701752204587065e-03 -2.12413516521060190e-04 0
1.95544467445984407e-03 -2.13566364359441051e-04 0
2.23911031590190391e-03 2.19822285440644290e-04 0
2.03867212070522625e-03 2.17814826565434572e-04 0
2.11778941293088363e-03 2.18712751970909290e-04 0
2.19717602401581658e-03 2.19476346597732689e-04 0
2.23905230898430348e-03 -2.16433729955529703e-04 0
2.03858330562998666e-03 -2.14608185128357227e-04 0
2.11771879158736704e-03 -2.15435268322200030e-04 0
2.19710819594524411e-03 -2.16118499295394316e-04 0
2.48297307831574915e-03 2.21307714012099053e-04 0
2.28112056607402509e-03 2.20144349137354361e-04 0
2.36087734790789167e-03 2.20663986616362486e-04 0
2.44076323180252193e-03 2.21103974744932122e-04 0
2.48290356770238061e-03 -2.17740535381791023e-04 0
2.28105502072753832e-03 -2.16722711140055645e-04 0
2.36080638479944840e-03 -2.17194203206833719e-04 0
2.44070336073229496e-03 -2.17575298733622464e-04 0
2.72771088896118195e-03 2.22119747627815266e-04 0
2.52517303290780617e-03 2.21482702367011643e-04 0
2.60526263463722743e-03 2.21770271961075418e-04 0
2.68540788170206499e-03 2.22004188936525507e-04 0
2.72768012595777862e-03 -2.18387561668077507e-04 0
2.52510970039918157e-03 -2.17890776828788107e-04 0
2.60519602695441542e-03 -2.18129803624849295e-04 0
2.68536191217917664e-03 -2.18312236878038201e-04 0
2.97288120841862104e-03 2.22465838614221257e-04 0
2.77005666524467609e-03 2.22216449726837600e-04 0
2.85027724042254387e-03 2.22336938801014338e-04 0
2.93052943108044117e-03 2.22428298548095363e-04 0
2.97285028300267205e-03 -2.18582616071726662e-04 0
2.77002011175951418e-03 -2.18440411227259143e-04 0
2.85024905558677781e-03 -2.18520297950971446e-04 0
2.93050234231595095e-03 -2.18570216218366931e-04 0
3.21804081055612279e-03 2.22523889800437051e-04 0
3.21802983060872532e-03 7.54799918678467806e-05 0
3.01524571865101213e-03 2.22498524543111349e-04 0
3.09552536819659996e-03 2.22528209774086930e-04 0
3.17572967867068949e-03 2.22523573441949169e-04 0
3.21804291024064323e-03 1.97139891886206230e-04 0
3.21805119884706770e-03 1.49024368785128210e-04 0
3.21803960479920400e-03 1.00874833205956619e-04 0
3.21800361608454589e-03 -7.15434435300419741e-05 0
3.21802404475345256e-03 5.00956434845555037e-05 0
3.21802123873812752e-03 1.98406738914282580e-06 0
3.21801082696599383e-03 -4.61524526568922900e-05 0
3.21799065978863128e-03 -2.18560798554983228e-04 0
3.01521035886743571e-03 -2.18583517542585262e-04 0
3.09547397777476703e-03 -2.18564244946165676e-04 0
3.17567193533873542e-03 -2.18556806241638107e-04 0
3.21799965563313072e-03 -9.69267256961792016e-05 0
3.21799754939470616e-03 -1.45037794310436206e-04 0
3.21799153969791777e-03 -1.93166194856342474e-04 0

VECTORS Force double
1.96002281089968644e-01 7.99274850814254436e-04 0
-9.26691984949317593e-01 5.78270656629334867e-04 0
-9.41260398238427332e-01 -4.03857217681210601e-06 0
7.38065482064799383e+00 -5.27290551540179203e-03 0
3.55896187363836614e+00 -2.50699390026678506e-03 0
6.99116243685350830e-02 8.60743155752743353e-04 0
-3.54515463924138852e-01 4.67623114471554162e-04 0
-3.57152964074664403e-01 -2.16265770621212015e-04 0
2.82690522769036923e+00 -3.61348913103558657e-03 0
1.36341965527914688e+00 -1.73016422952687685e-03 0
-8.29471562504326965e-01 3.48745067327356061e-03 0
-5.10183215576145710e-02 4.71931224534162346e-04 0
5.98271586557173940e-01 -2.51198201123900653e-03 0
9.54953196027125806e+00 -3.90981723064634246e-02 0
-3.13353906762997514e-01 -5.00471177857492907e-05 0
-1.80642978389977740e-02 -4.05709925521520603e-05 0
2.25893951707404395e-01 -1.93264967380092896e-06 0
3.60659392673278800e+00 5.38059171152731439e-04 0
9.34182524287885840e+00 -5.44393074590425255e-02 0
9.66005839235859337e-02 -4.75706869982817722e-04 0
-1.84621256351418482e-02 5.84476154225611495e-05 0
2.64598036752088026e-02 3.18881161597973675e-05 0
3.45978396000392019e+00 3.35981518434495322e-02 0
3.62722393843300864e-02 -1.13370254483362670e-05 0
-7.38560347214306523e-03 -1.12391693019188540e-05 0
9.43676461728908990e-03 1.33215904177947870e-05 0
-8.43607749345057223e-01 4.40775377026366225e-03 0
2.80440972835301894e-02 -1.83415801132938070e-05 0
-1.81435952796158706e-02 -2.05617429438812662e-06 0
9.55771093016020562e-02 -5.89826644936224435e-04 0
-3.06743558707124386e-01 -8.33543418029949329e-03 0
1.02123375547758972e-02 -1.77271091742663932e-05 0
-7.14651435839858389e-03 -1.63737577498589484e-04 0
3.44950989274597844e-02 1.04498692902330222e-03 0
-9.58828278285205560e-01 9.61964148559839175e-04 0
9.71624001569689888e+00 -4.90585471804882364e-02 0
6.08361150502118475e-01 -3.10000483929427379e-03 0
-5.46991525904499398e-02 5.40152854833003660e-04 0
-3.43128165346290537e-01 -1.70050312041617191e-02 0
3.53105786558677393e+00 9.27531805550798755e-02 0
2.21067884894028427e-01 5.55443433149197148e-03 0
-2.00330232592483767e-02 2.02283176640116286e-04 0
4.81190570376721694e-01 1.31833353527971344e-03 0
3.67931474630821320e+00 -4.08553041114893475e-03 0
7.61439261926448729e+00 -8.42452566561057922e-03 0