# vtk DataFile Version 2.0

ASCII

DATASET UNSTRUCTURED_GRID

POINTS 157 double 

-5.00000000000000028e-02  0.00000000000000000e+00  0.00000000000000000e+00
-5.00000000000000028e-02  5.55555555555555525e-02  0.00000000000000000e+00
-5.00000000000000028e-02  9.59295359144507823e-03  0.00000000000000000e+00
-5.00000000000000028e-02  2.77777777777777762e-02  0.00000000000000000e+00
-5.00000000000000028e-02  4.59626019641104708e-02  0.00000000000000000e+00
4.99999999999999958e-02  0.00000000000000000e+00  0.00000000000000000e+00
4.99999999999999958e-02  5.55555555555555525e-02  0.00000000000000000e+00
4.99999999999999958e-02  9.59295359144507823e-03  0.00000000000000000e+00
4.99999999999999958e-02  2.77777777777777762e-02  0.00000000000000000e+00
4.99999999999999958e-02  4.59626019641104708e-02  0.00000000000000000e+00
-5.00000000000000028e-02  1.11111111111111105e-01  0.00000000000000000e+00
-5.00000000000000028e-02  6.51485091470006272e-02  0.00000000000000000e+00
-5.00000000000000028e-02  8.33333333333333287e-02  0.00000000000000000e+00
-5.00000000000000028e-02  1.01518157519666030e-01  0.00000000000000000e+00
4.99999999999999958e-02  1.11111111111111105e-01  0.00000000000000000e+00
4.99999999999999958e-02  6.51485091470006272e-02  0.00000000000000000e+00
4.99999999999999958e-02  8.33333333333333287e-02  0.00000000000000000e+00
4.99999999999999958e-02  1.01518157519666030e-01  0.00000000000000000e+00
-5.00000000000000028e-02  1.66666666666666657e-01  0.00000000000000000e+00
-5.00000000000000028e-02  1.20704064702556180e-01  0.00000000000000000e+00
-5.00000000000000028e-02  1.38888888888888895e-01  0.00000000000000000e+00
-5.00000000000000028e-02  1.57073713075221583e-01  0.00000000000000000e+00
4.99999999999999958e-02  1.66666666666666657e-01  0.00000000000000000e+00
4.99999999999999958e-02  1.20704064702556180e-01  0.00000000000000000e+00
4.99999999999999958e-02  1.38888888888888895e-01  0.00000000000000000e+00
4.99999999999999958e-02  1.57073713075221583e-01  0.00000000000000000e+00
-5.00000000000000028e-02  2.22222222222222210e-01  0.00000000000000000e+00
-5.00000000000000028e-02  1.76259620258111732e-01  0.00000000000000000e+00
-5.00000000000000028e-02  1.94444444444444420e-01  0.00000000000000000e+00
-5.00000000000000028e-02  2.12629268630777135e-01  0.00000000000000000e+00
4.99999999999999958e-02  2.22222222222222210e-01  0.00000000000000000e+00
4.99999999999999958e-02  1.76259620258111732e-01  0.00000000000000000e+00
4.99999999999999958e-02  1.94444444444444420e-01  0.00000000000000000e+00
4.99999999999999958e-02  2.12629268630777135e-01  0.00000000000000000e+00
-5.00000000000000028e-02  2.77777777777777790e-01  0.00000000000000000e+00
-5.00000000000000028e-02  2.31815175813667285e-01  0.00000000000000000e+00
-5.00000000000000028e-02  2.50000000000000000e-01  0.00000000000000000e+00
-5.00000000000000028e-02  2.68184824186332715e-01  0.00000000000000000e+00
4.99999999999999958e-02  2.77777777777777790e-01  0.00000000000000000e+00
4.99999999999999958e-02  2.31815175813667285e-01  0.00000000000000000e+00
4.99999999999999958e-02  2.50000000000000000e-01  0.00000000000000000e+00
4.99999999999999958e-02  2.68184824186332715e-01  0.00000000000000000e+00
-5.00000000000000028e-02  3.33333333333333315e-01  0.00000000000000000e+00
-5.00000000000000028e-02  2.87370731369222865e-01  0.00000000000000000e+00
-5.00000000000000028e-02  3.05555555555555580e-01  0.00000000000000000e+00
-5.00000000000000028e-02  3.23740379741888240e-01  0.00000000000000000e+00
4.99999999999999958e-02  3.33333333333333315e-01  0.00000000000000000e+00
4.99999999999999958e-02  2.87370731369222865e-01  0.00000000000000000e+00
4.99999999999999958e-02  3.05555555555555580e-01  0.00000000000000000e+00
4.99999999999999958e-02  3.23740379741888240e-01  0.00000000000000000e+00
-5.00000000000000028e-02  3.88888888888888840e-01  0.00000000000000000e+00
-5.00000000000000028e-02  3.42926286924778334e-01  0.00000000000000000e+00
-5.00000000000000028e-02  3.61111111111111049e-01  0.00000000000000000e+00
-5.00000000000000028e-02  3.79295935297443765e-01  0.00000000000000000e+00
4.99999999999999958e-02  3.88888888888888840e-01  0.00000000000000000e+00
4.99999999999999958e-02  3.42926286924778334e-01  0.00000000000000000e+00
4.99999999999999958e-02  3.61111111111111049e-01  0.00000000000000000e+00
4.99999999999999958e-02  3.79295935297443765e-01  0.00000000000000000e+00
-5.00000000000000028e-02  4.44444444444444420e-01  0.00000000000000000e+00
-5.00000000000000028e-02  3.98481842480333914e-01  0.00000000000000000e+00
-5.00000000000000028e-02  4.16666666666666630e-01  0.00000000000000000e+00
-5.00000000000000028e-02  4.34851490852999345e-01  0.00000000000000000e+00
4.99999999999999958e-02  4.44444444444444420e-01  0.00000000000000000e+00
4.99999999999999958e-02  3.98481842480333914e-01  0.00000000000000000e+00
4.99999999999999958e-02  4.16666666666666630e-01  0.00000000000000000e+00
4.99999999999999958e-02  4.34851490852999345e-01  0.00000000000000000e+00
-5.00000000000000028e-02  5.00000000000000000e-01  0.00000000000000000e+00
-5.00000000000000028e-02  4.54037398035889495e-01  0.00000000000000000e+00
-5.00000000000000028e-02  4.72222222222222210e-01  0.00000000000000000e+00
-5.00000000000000028e-02  4.90407046408554925e-01  0.00000000000000000e+00
4.99999999999999958e-02  5.00000000000000000e-01  0.00000000000000000e+00
4.99999999999999958e-02  4.54037398035889495e-01  0.00000000000000000e+00
4.99999999999999958e-02  4.72222222222222210e-01  0.00000000000000000e+00
4.99999999999999958e-02  4.90407046408554925e-01  0.00000000000000000e+00
-5.00000000000000028e-02  5.55555555555555580e-01  0.00000000000000000e+00
-5.00000000000000028e-02  5.09592953591445075e-01  0.00000000000000000e+00
-5.00000000000000028e-02  5.27777777777777790e-01  0.00000000000000000e+00
-5.00000000000000028e-02  5.45962601964110505e-01  0.00000000000000000e+00
4.99999999999999958e-02  5.55555555555555580e-01  0.00000000000000000e+00
4.99999999999999958e-02  5.09592953591445075e-01  0.00000000000000000e+00
4.99999999999999958e-02  5.27777777777777790e-01  0.00000000000000000e+00
4.99999999999999958e-02  5.45962601964110505e-01  0.00000000000000000e+00
-5.00000000000000028e-02  6.11111111111111049e-01  0.00000000000000000e+00
-5.00000000000000028e-02  5.65148509147000655e-01  0.00000000000000000e+00
-5.00000000000000028e-02  5.83333333333333259e-01  0.00000000000000000e+00
-5.00000000000000028e-02  6.01518157519665975e-01  0.00000000000000000e+00
4.99999999999999958e-02  6.11111111111111049e-01  0.00000000000000000e+00
4.99999999999999958e-02  5.65148509147000655e-01  0.00000000000000000e+00
4.99999999999999958e-02  5.83333333333333259e-01  0.00000000000000000e+00
4.99999999999999958e-02  6.01518157519665975e-01  0.00000000000000000e+00
-5.00000000000000028e-02  6.66666666666666630e-01  0.00000000000000000e+00
-5.00000000000000028e-02  6.20704064702556013e-01  0.00000000000000000e+00
-5.00000000000000028e-02  6.38888888888888840e-01  0.00000000000000000e+00
-5.00000000000000028e-02  6.57073713075221555e-01  0.00000000000000000e+00
4.99999999999999958e-02  6.66666666666666630e-01  0.00000000000000000e+00
4.99999999999999958e-02  6.20704064702556013e-01  0.00000000000000000e+00
4.99999999999999958e-02  6.38888888888888840e-01  0.00000000000000000e+00
4.99999999999999958e-02  6.57073713075221555e-01  0.00000000000000000e+00
-5.00000000000000028e-02  7.22222222222222210e-01  0.00000000000000000e+00
-5.00000000000000028e-02  6.76259620258111704e-01  0.00000000000000000e+00
-5.00000000000000028e-02  6.94444444444444420e-01  0.00000000000000000e+00
-5.00000000000000028e-02  7.12629268630777135e-01  0.00000000000000000e+00
4.99999999999999958e-02  7.22222222222222210e-01  0.00000000000000000e+00
4.99999999999999958e-02  6.76259620258111704e-01  0.00000000000000000e+00
4.99999999999999958e-02  6.94444444444444420e-01  0.00000000000000000e+00
4.99999999999999958e-02  7.12629268630777135e-01  0.00000000000000000e+00
-5.00000000000000028e-02  7.77777777777777679e-01  0.00000000000000000e+00
-5.00000000000000028e-02  7.31815175813667174e-01  0.00000000000000000e+00
-5.00000000000000028e-02  7.50000000000000000e-01  0.00000000000000000e+00
-5.00000000000000028e-02  7.68184824186332604e-01  0.00000000000000000e+00
4.99999999999999958e-02  7.77777777777777679e-01  0.00000000000000000e+00
4.99999999999999958e-02  7.31815175813667174e-01  0.00000000000000000e+00
4.99999999999999958e-02  7.50000000000000000e-01  0.00000000000000000e+00
4.99999999999999958e-02  7.68184824186332604e-01  0.00000000000000000e+00
-5.00000000000000028e-02  8.33333333333333259e-01  0.00000000000000000e+00
-5.00000000000000028e-02  7.87370731369222754e-01  0.00000000000000000e+00
-5.00000000000000028e-02  8.05555555555555469e-01  0.00000000000000000e+00
-5.00000000000000028e-02  8.23740379741888185e-01  0.00000000000000000e+00
4.99999999999999958e-02  8.33333333333333259e-01  0.00000000000000000e+00
4.99999999999999958e-02  7.87370731369222754e-01  0.00000000000000000e+00
4.99999999999999958e-02  8.05555555555555469e-01  0.00000000000000000e+00
4.99999999999999958e-02  8.23740379741888185e-01  0.00000000000000000e+00
-5.00000000000000028e-02  8.88888888888888840e-01  0.00000000000000000e+00
-5.00000000000000028e-02  8.42926286924778334e-01  0.00000000000000000e+00
-5.00000000000000028e-02  8.61111111111111049e-01  0.00000000000000000e+00
-5.00000000000000028e-02  8.79295935297443765e-01  0.00000000000000000e+00
4.99999999999999958e-02  8.88888888888888840e-01  0.00000000000000000e+00
4.99999999999999958e-02  8.42926286924778334e-01  0.00000000000000000e+00
4.99999999999999958e-02  8.61111111111111049e-01  0.00000000000000000e+00
4.99999999999999958e-02  8.79295935297443765e-01  0.00000000000000000e+00
-5.00000000000000028e-02  9.44444444444444420e-01  0.00000000000000000e+00
-5.00000000000000028e-02  8.98481842480333914e-01  0.00000000000000000e+00
-5.00000000000000028e-02  9.16666666666666630e-01  0.00000000000000000e+00
-5.00000000000000028e-02  9.34851490852999345e-01  0.00000000000000000e+00
4.99999999999999958e-02  9.44444444444444420e-01  0.00000000000000000e+00
4.99999999999999958e-02  8.98481842480333914e-01  0.00000000000000000e+00
4.99999999999999958e-02  9.16666666666666630e-01  0.00000000000000000e+00
4.99999999999999958e-02  9.34851490852999345e-01  0.00000000000000000e+00
-5.00000000000000028e-02  1.00000000000000000e+00  0.00000000000000000e+00
-1.66666666666666699e-02  1.00000000000000000e+00  0.00000000000000000e+00
-5.00000000000000028e-02  9.54037398035889495e-01  0.00000000000000000e+00
-5.00000000000000028e-02  9.72222222222222210e-01  0.00000000000000000e+00
-5.00000000000000028e-02  9.90407046408554925e-01  0.00000000000000000e+00
-4.42442278451329538e-02  1.00000000000000000e+00  0.00000000000000000e+00
-3.33333333333333398e-02  1.00000000000000000e+00  0.00000000000000000e+00
-2.24224388215337189e-02  1.00000000000000000e+00  0.00000000000000000e+00
1.66666666666666630e-02  1.00000000000000000e+00  0.00000000000000000e+00
-1.09108945117996226e-02  1.00000000000000000e+00  0.00000000000000000e+00
-3.46944695195361419e-18  1.00000000000000000e+00  0.00000000000000000e+00
1.09108945117996139e-02  1.00000000000000000e+00  0.00000000000000000e+00
4.99999999999999958e-02  1.00000000000000000e+00  0.00000000000000000e+00
4.99999999999999958e-02  9.54037398035889495e-01  0.00000000000000000e+00
4.99999999999999958e-02  9.72222222222222210e-01  0.00000000000000000e+00
4.99999999999999958e-02  9.90407046408554925e-01  0.00000000000000000e+00
2.24224388215337120e-02  1.00000000000000000e+00  0.00000000000000000e+00
3.33333333333333259e-02  1.00000000000000000e+00  0.00000000000000000e+00
4.42442278451329468e-02  1.00000000000000000e+00  0.00000000000000000e+00

CELLS 0 0


CELL_TYPES 0


POINT_DATA 157

VECTORS VertexNormals double

0.00000000000000000e+00 0.00000000000000000e+00 0
0.00000000000000000e+00 0.00000000000000000e+00 0
0.00000000000000000e+00 0.00000000000000000e+00 0
0.00000000000000000e+00 0.00000000000000000e+00 0
0.00000000000000000e+00 0.00000000000000000e+00 0
0.00000000000000000e+00 0.00000000000000000e+00 0
0.00000000000000000e+00 0.00000000000000000e+00 0
0.00000000000000000e+00 0.00000000000000000e+00 0
0.00000000000000000e+00 0.00000000000000000e+00 0
0.00000000000000000e+00 0.00000000000000000e+00 0
0.00000000000000000e+00 0.00000000000000000e+00 0
0.00000000000000000e+00 0.00000000000000000e+00 0
0.00000000000000000e+00 0.00000000000000000e+00 0
0.00000000000000000e+00 0.00000000000000000e+00 0
0.00000000000000000e+00 0.00000000000000000e+00 0
0.00000000000000000e+00 0.00000000000000000e+00 0
0.00000000000000000e+00 0.00000000000000000e+00 0
0.00000000000000000e+00 0.00000000000000000e+00 0
0.00000000000000000e+00 0.00000000000000000e+00 0
0.00000000000000000e+00 0.00000000000000000e+00 0
0.00000000000000000e+00 0.00000000000000000e+00 0
0.00000000000000000e+00 0.00000000000000000e+00 0
0.00000000000000000e+00 0.00000000000000000e+00 0
0.00000000000000000e+00 0.00000000000000000e+00 0
0.00000000000000000e+00 0.00000000000000000e+00 0
0.00000000000000000e+00 0.00000000000000000e+00 0
0.00000000000000000e+00 0.00000000000000000e+00 0
0.00000000000000000e+00 0.00000000000000000e+00 0
0.00000000000000000e+00 0.00000000000000000e+00 0
0.00000000000000000e+00 0.00000000000000000e+00 0
0.00000000000000000e+00 0.00000000000000000e+00 0
0.00000000000000000e+00 0.00000000000000000e+00 0
0.00000000000000000e+00 0.00000000000000000e+00 0
0.00000000000000000e+00 0.00000000000000000e+00 0
0.00000000000000000e+00 0.00000000000000000e+00 0
0.00000000000000000e+00 0.00000000000000000e+00 0
0.00000000000000000e+00 0.00000000000000000e+00 0
0.00000000000000000e+00 0.00000000000000000e+00 0
0.00000000000000000e+00 0.00000000000000000e+00 0
0.00000000000000000e+00 0.00000000000000000e+00 0
0.00000000000000000e+00 0.00000000000000000e+00 0
0.00000000000000000e+00 0.00000000000000000e+00 0
0.00000000000000000e+00 0.00000000000000000e+00 0
0.00000000000000000e+00 0.00000000000000000e+00 0
0.00000000000000000e+00 0.00000000000000000e+00 0
0.00000000000000000e+00 0.00000000000000000e+00 0
0.00000000000000000e+00 0.00000000000000000e+00 0
0.00000000000000000e+00 0.00000000000000000e+00 0
0.00000000000000000e+00 0.00000000000000000e+00 0
0.00000000000000000e+00 0.00000000000000000e+00 0
0.00000000000000000e+00 0.00000000000000000e+00 0
0.00000000000000000e+00 0.00000000000000000e+00 0
0.00000000000000000e+00 0.00000000000000000e+00 0
0.00000000000000000e+00 0.00000000000000000e+00 0
0.00000000000000000e+00 0.00000000000000000e+00 0
0.00000000000000000e+00 0.00000000000000000e+00 0
0.00000000000000000e+00 0.00000000000000000e+00 0
0.00000000000000000e+00 0.00000000000000000e+00 0
0.00000000000000000e+00 0.00000000000000000e+00 0
0.00000000000000000e+00 0.00000000000000000e+00 0
0.00000000000000000e+00 0.00000000000000000e+00 0
0.00000000000000000e+00 0.00000000000000000e+00 0
0.00000000000000000e+00 0.00000000000000000e+00 0
0.00000000000000000e+00 0.00000000000000000e+00 0
0.00000000000000000e+00 0.00000000000000000e+00 0
0.00000000000000000e+00 0.00000000000000000e+00 0
0.00000000000000000e+00 0.00000000000000000e+00 0
0.00000000000000000e+00 0.00000000000000000e+00 0
0.00000000000000000e+00 0.00000000000000000e+00 0
0.00000000000000000e+00 0.00000000000000000e+00 0
0.00000000000000000e+00 0.00000000000000000e+00 0
0.00000000000000000e+00 0.00000000000000000e+00 0
0.00000000000000000e+00 0.00000000000000000e+00 0
0.00000000000000000e+00 0.00000000000000000e+00 0
0.00000000000000000e+00 0.00000000000000000e+00 0
0.00000000000000000e+00 0.00000000000000000e+00 0
0.00000000000000000e+00 0.00000000000000000e+00 0
0.00000000000000000e+00 0.00000000000000000e+00 0
0.00000000000000000e+00 0.00000000000000000e+00 0
0.00000000000000000e+00 0.00000000000000000e+00 0
0.00000000000000000e+00 0.00000000000000000e+00 0
0.00000000000000000e+00 0.00000000000000000e+00 0
0.00000000000000000e+00 0.00000000000000000e+00 0
0.00000000000000000e+00 0.00000000000000000e+00 0
0.00000000000000000e+00 0.00000000000000000e+00 0
0.00000000000000000e+00 0.00000000000000000e+00 0
0.00000000000000000e+00 0.00000000000000000e+00 0
0.00000000000000000e+00 0.00000000000000000e+00 0
0.00000000000000000e+00 0.00000000000000000e+00 0
0.00000000000000000e+00 0.00000000000000000e+00 0
0.00000000000000000e+00 0.00000000000000000e+00 0
0.00000000000000000e+00 0.00000000000000000e+00 0
0.00000000000000000e+00 0.00000000000000000e+00 0
0.00000000000000000e+00 0.00000000000000000e+00 0
0.00000000000000000e+00 0.00000000000000000e+00 0
0.00000000000000000e+00 0.00000000000000000e+00 0
0.00000000000000000e+00 0.00000000000000000e+00 0
0.00000000000000000e+00 0.00000000000000000e+00 0
0.00000000000000000e+00 0.00000000000000000e+00 0
0.00000000000000000e+00 0.00000000000000000e+00 0
0.00000000000000000e+00 0.00000000000000000e+00 0
0.00000000000000000e+00 0.00000000000000000e+00 0
0.00000000000000000e+00 0.00000000000000000e+00 0
0.00000000000000000e+00 0.00000000000000000e+00 0
0.00000000000000000e+00 0.00000000000000000e+00 0
0.00000000000000000e+00 0.00000000000000000e+00 0
0.00000000000000000e+00 0.00000000000000000e+00 0
0.00000000000000000e+00 0.00000000000000000e+00 0
0.00000000000000000e+00 0.00000000000000000e+00 0
0.00000000000000000e+00 0.00000000000000000e+00 0
0.00000000000000000e+00 0.00000000000000000e+00 0
0.00000000000000000e+00 0.00000000000000000e+00 0
0.00000000000000000e+00 0.00000000000000000e+00 0
0.00000000000000000e+00 0.00000000000000000e+00 0
0.00000000000000000e+00 0.00000000000000000e+00 0
0.00000000000000000e+00 0.00000000000000000e+00 0
0.00000000000000000e+00 0.00000000000000000e+00 0
0.00000000000000000e+00 0.00000000000000000e+00 0
0.00000000000000000e+00 0.00000000000000000e+00 0
0.00000000000000000e+00 0.00000000000000000e+00 0
0.00000000000000000e+00 0.00000000000000000e+00 0
0.00000000000000000e+00 0.00000000000000000e+00 0
0.00000000000000000e+00 0.00000000000000000e+00 0
0.00000000000000000e+00 0.00000000000000000e+00 0
0.00000000000000000e+00 0.00000000000000000e+00 0
0.00000000000000000e+00 0.00000000000000000e+00 0
0.00000000000000000e+00 0.00000000000000000e+00 0
0.00000000000000000e+00 0.00000000000000000e+00 0
0.00000000000000000e+00 0.00000000000000000e+00 0
0.00000000000000000e+00 0.00000000000000000e+00 0
0.00000000000000000e+00 0.00000000000000000e+00 0
0.00000000000000000e+00 0.00000000000000000e+00 0
0.00000000000000000e+00 0.00000000000000000e+00 0
0.00000000000000000e+00 0.00000000000000000e+00 0
0.00000000000000000e+00 0.00000000000000000e+00 0
0.00000000000000000e+00 0.00000000000000000e+00 0
0.00000000000000000e+00 0.00000000000000000e+00 0
0.00000000000000000e+00 0.00000000000000000e+00 0
0.00000000000000000e+00 0.00000000000000000e+00 0
0.00000000000000000e+00 0.00000000000000000e+00 0
0.00000000000000000e+00 0.00000000000000000e+00 0
0.00000000000000000e+00 0.00000000000000000e+00 0
0.00000000000000000e+00 0.00000000000000000e+00 0
0.00000000000000000e+00 0.00000000000000000e+00 0
0.00000000000000000e+00 0.00000000000000000e+00 0
0.00000000000000000e+00 0.00000000000000000e+00 0
0.00000000000000000e+00 0.00000000000000000e+00 0
0.00000000000000000e+00 0.00000000000000000e+00 0
0.00000000000000000e+00 0.00000000000000000e+00 0
0.00000000000000000e+00 0.00000000000000000e+00 0
0.00000000000000000e+00 0.00000000000000000e+00 0
0.00000000000000000e+00 0.00000000000000000e+00 0
0.00000000000000000e+00 0.00000000000000000e+00 0
0.00000000000000000e+00 0.00000000000000000e+00 0
0.00000000000000000e+00 0.00000000000000000e+00 0
0.00000000000000000e+00 0.00000000000000000e+00 0
0.00000000000000000e+00 0.00000000000000000e+00 0

VECTORS Displacement double
0.00000000000000000e+00 0.00000000000000000e+00 0
4.23368429003796083e-06 4.85151980089093878e-06 0
7.34662173145675092e-07 1.02351161629524437e-06 0
1.84068288723926783e-06 2.59009976089530489e-06 0
3.29450825748548642e-06 4.08946147215298133e-06 0
0.00000000000000000e+00 0.00000000000000000e+00 0
4.32462643900018205e-06 -5.07305827527999957e-06 0
7.67500541580008366e-07 -1.06618382580751901e-06 0
1.86922912862312448e-06 -2.70357861697942904e-06 0
3.35748028997510603e-06 -4.27944038115294779e-06 0
1.27004691505610127e-05 8.86238558402581106e-06 0
5.35658557830700082e-06 5.60734449376399917e-06 0
7.92158862604220652e-06 6.97279906225881913e-06 0
1.09755747712454088e-05 8.22956865861491243e-06 0
1.27672984502470158e-05 -9.28519830006716953e-06 0
5.46138903032620440e-06 -5.85637741173981961e-06 0
8.00504572208006501e-06 -7.27686033529315001e-06 0
1.10234112899717907e-05 -8.60907425594358430e-06 0
2.52976714267018637e-05 1.22837495386552661e-05 0
1.45614398841346989e-05 9.49821497947489176e-06 0
1.84617406670719707e-05 1.06614751201553872e-05 0
2.28251553765429197e-05 1.17487933220120069e-05 0
2.53427436218463259e-05 -1.28950815736211568e-05 0
1.46414677393768317e-05 -9.95256501224438419e-06 0
1.85438887447108972e-05 -1.11728664980791167e-05 0
2.28862399731929765e-05 -1.23221279064308217e-05 0
4.13880796898774902e-05 1.50603409086209346e-05 0
2.78259744485274149e-05 1.27987771822169486e-05 0
3.29096167884033845e-05 1.37400368362937476e-05 0
3.83653690631620260e-05 1.46227881808246940e-05 0
4.14366262093690619e-05 -1.58385234079304174e-05 0
2.78841583770277461e-05 -1.34475841211818640e-05 0
3.29832518563102204e-05 -1.44459731222159815e-05 0
3.84307687011850382e-05 -1.53762394228018221e-05 0
6.01953959949624295e-05 1.72566736544926274e-05 0
4.45018376942781337e-05 1.54605238737603079e-05 0
5.04852630717106239e-05 1.61878163415247430e-05 0
5.67497786121660963e-05 1.68987083516856503e-05 0
6.02550562211345711e-05 -1.81838046580768047e-05 0
4.45272726136394830e-05 -1.62743233603597732e-05 0
5.05413897417754699e-05 -1.70611855665574084e-05 0
5.68237338627232701e-05 -1.78086290011618042e-05 0
8.13300247558343002e-05 1.89767726627122771e-05 0
6.37318970795478428e-05 1.75932339329899962e-05 0
7.05707586762737246e-05 1.81670010608588634e-05 0
7.75403545878002769e-05 1.87017474671538588e-05 0
8.13904657883104878e-05 -2.00393017243356263e-05 0
6.37641024343734510e-05 -1.85419181443626326e-05 0
7.05811446397841525e-05 -1.91723819031165209e-05 0
7.75921573614483874e-05 -1.97532807205313698e-05 0
1.04334818143939689e-04 1.99623721510885471e-05 0
8.52104289875683474e-05 1.92299923504530975e-05 0
9.27492192629788290e-05 1.96031372975615562e-05 0
1.00325309633285929e-04 1.98571412039576382e-05 0
1.04377885412960730e-04 -2.11381079360769869e-05 0
8.52597621445475235e-05 -2.03022991205125182e-05 0
9.27513386778589579e-05 -2.07135895721046205e-05 0
1.00343409595111081e-04 -2.10164174295082025e-05 0
1.27950913469552678e-04 2.00083840535283446e-05 0
1.08383798912917777e-04 2.00467870575878053e-05 0
1.16155075871586373e-04 2.01259525515875152e-05 0
1.23935047005061178e-04 2.00760483460287648e-05 0
1.27963574436596253e-04 -2.12647889393590038e-05 0
1.08438633370171544e-04 -2.12321400223417262e-05 0
1.16186305208440703e-04 -2.13266323963964380e-05 0
1.23927783143430823e-04 -2.13090677283554071e-05 0
1.50944825785010193e-04 1.94052679542514230e-05 0
1.31957960912589662e-04 1.99412489942873680e-05 0
1.39524864534511201e-04 1.97710479514956126e-05 0
1.47025305376806425e-04 1.95457542817186445e-05 0
1.50933204369556556e-04 -2.07093565032598025e-05 0
1.31984631816917065e-04 -2.12070041720160977e-05 0
1.39553621004946627e-04 -2.10493670548431084e-05 0
1.47031394925450546e-04 -2.08385948948488220e-05 0
1.72833235439423820e-04 1.86270047861449400e-05 0
1.54778582543763283e-04 1.92586291018404703e-05 0
1.61973688823924673e-04 1.89980088538450321e-05 0
1.69096779388452928e-04 1.87533645947333526e-05 0
1.72820807966222751e-04 -1.99430438178244827e-05 0
1.54779489198608939e-04 -2.05768691661073839e-05 0
1.61989403948517482e-04 -2.03245216197742641e-05 0
1.69102533543017108e-04 -2.00744118728938140e-05 0
1.93762690917702980e-04 1.79013941956571955e-05 0
1.76554556309177642e-04 1.84836841756944133e-05 0
1.83405432886602523e-04 1.82243384423809358e-05 0
1.90183928557640872e-04 1.80086040956522323e-05 0
1.93756122727922991e-04 -1.91988251156086046e-05 0
1.76516980263932867e-04 -1.98038165156786207e-05 0
1.83396020271299590e-04 -1.95540120494864725e-05 0
1.90192309621917973e-04 -1.93205634889791860e-05 0
2.13885609900209793e-04 1.72663014387372461e-05 0
1.97339262322440017e-04 1.77898688855839236e-05 0
2.04004079459481049e-04 1.75569056021826764e-05 0
2.10479447914247618e-04 1.73482760317717575e-05 0
2.13875823633125956e-04 -1.85211377094507841e-05 0
1.97304661367408030e-04 -1.90747470209967854e-05 0
2.03944725354864535e-04 -1.88375152548772366e-05 0
2.10460070552921945e-04 -1.86225484532295268e-05 0
2.33337228943221280e-04 1.68255938122554765e-05 0
2.17302691849684314e-04 1.71918083139218406e-05 0
2.23770705964846783e-04 1.70351641089868863e-05 0
2.30067668368062262e-04 1.68808826403761124e-05 0
2.33311095752378021e-04 -1.80116317120802567e-05 0
2.17282790671637386e-04 -1.84235909667146473e-05 0
2.23705051480958209e-04 -1.82375137274030265e-05 0
2.30016186953508597e-04 -1.80765603406837288e-05 0
2.52356030246043321e-04 1.67703511819939739e-05 0
2.36613789056872758e-04 1.67918464655064581e-05 0
2.42866195535159138e-04 1.67681617884687164e-05 0
2.49122911790633885e-04 1.67656243244271746e-05 0
2.52307756282093871e-04 -1.78657995741651202e-05 0
2.36600952379432917e-04 -1.79593026504098185e-05 0
2.42835587952980466e-04 -1.78909849635909843e-05 0
2.49057591299199123e-04 -1.78586978890229428e-05 0
2.71527078790292898e-04 1.72022690081731884e-05 0
2.55604732734580789e-04 1.68122464114479217e-05 0
2.61828601605666571e-04 1.69370921193706886e-05 0
2.68149269417747793e-04 1.71042586841753218e-05 0
2.71471485543976353e-04 -1.82036284136068891e-05 0
2.55571842763857408e-04 -1.78944180477772782e-05 0
2.61801575439918300e-04 -1.79873484082738593e-05 0
2.68106173657969458e-04 -1.81223228543506321e-05 0
2.91464906362109131e-04 1.79225862486916806e-05 0
2.74878336811800069e-04 1.72992943858278400e-05 0
2.81325915408895300e-04 1.75284174122879673e-05 0
2.87920602091986614e-04 1.77857276685454145e-05 0
2.91431604510805110e-04 -1.88264413214513129e-05 0
2.74833600359106060e-04 -1.82988210567247622e-05 0
2.81302244137116811e-04 -1.85016528907887870e-05 0
2.87897847173090751e-04 -1.87162419968827158e-05 0
3.12313552080806191e-04 1.84703345240287486e-05 0
2.95055797318502847e-04 1.80390192360991786e-05 0
3.01803855586451632e-04 1.82142841415834568e-05 0
3.08644167795679432e-04 1.83875949696001463e-05 0
3.12307227896552653e-04 -1.92931623092150521e-05 0
2.95006009319805128e-04 -1.89195782994165795e-05 0
3.01777954284726958e-04 -1.90917583604119575e-05 0
3.08644431446479788e-04 -1.92370795594053341e-05 0
3.33519188853764552e-04 1.85959529498328822e-05 0
3.33508720516789616e-04 5.91105321108500381e-06 0
3.16019712243928452e-04 1.85370406653337904e-05 0
3.23012016022152697e-04 1.85930854597563502e-05 0
3.29887610504553603e-04 1.85919467854352949e-05 0
3.33521853624671038e-04 1.64175029334923196e-05 0
3.33534296193797322e-04 1.22855275395899352e-05 0
3.33521116033350063e-04 8.10797862183316403e-06 0
3.33476764503989496e-04 -6.73686616108680499e-06 0
3.33500572128474346e-04 3.72630200723144072e-06 0
3.33493245578095213e-04 -4.03645754715148800e-07 0
3.33481161904139402e-04 -4.55298334686319837e-06 0
3.33482506175231304e-04 -1.93734340458885312e-05 0
3.15997543621981351e-04 -1.93298293062355855e-05 0
3.22962892821373299e-04 -1.93530899644643882e-05 0
3.29841213305434177e-04 -1.93652909493091857e-05 0
3.33478454234953532e-04 -8.91324730148261906e-06 0
3.33486791433610893e-04 -1.30386117604149931e-05 0
3.33483445615286890e-04 -1.71836868661340090e-05 0

VECTORS Force double
1.91680160301110430e-01 9.24295990746761323e-04 0
-9.01544179624188757e-01 4.93214790662038728e-04 0
-9.17825580698175547e-01 -1.97922336534319190e-04 0
7.18611275430457663e+00 -4.43895089286035476e-03 0
3.46812197634919706e+00 -2.09358989073807605e-03 0
8.22928498109836704e-02 9.94445823558740135e-04 0
-4.08035328232283834e-01 4.98277291923544569e-04 0
-4.12647226813832979e-01 -3.00075864143906567e-04 0
3.25297236484380603e+00 -3.41181964031635632e-03 0
1.57030065938251240e+00 -1.65842860598348994e-03 0
-8.07797174256630335e-01 3.25125071987313443e-03 0
-5.34649443237699279e-02 4.74116517674427697e-04 0
5.82693444768614954e-01 -2.36985888026190750e-03 0
9.31166621633984448e+00 -3.66938105742717416e-02 0
-3.57755664533892292e-01 -1.97961291302158624e-03 0
-2.25768484153597571e-02 -3.14125129998405112e-04 0
2.58081946107960758e-01 1.33740781634483210e-03 0
4.12537345458413185e+00 2.19619255935826589e-02 0
9.12189449994297874e+00 -4.47912214765848471e-02 0
9.05771499206710073e-02 -4.67991602401047297e-04 0
-1.58540112336080161e-02 5.36719449140623275e-05 0
2.59620215318954149e-02 4.02585264972280847e-05 0
3.94000170188966248e+00 9.63525850501992659e-02 0
3.99062446684822075e-02 2.36341704056360812e-04 0
-7.51341458604920000e-03 -2.93352405403678055e-05 0
1.07088103835046924e-02 3.25859959108860608e-05 0
-8.26193004647307938e-01 2.20065782952422618e-03 0
2.79016281468753603e-02 -2.04175124454606935e-05 0
-1.42212145484525571e-02 -3.90762045361337608e-05 0
9.06502575215844125e-02 -3.12630840165196956e-04 0
-3.50678387229773236e-01 -1.91799534262859506e-02 0
1.19445644307604008e-02 -7.44071230611089624e-06 0
-6.33688658922607322e-03 -3.23341653395441044e-04 0
3.82651227362892088e-02 2.40186963134868779e-03 0
-9.40266613229344683e-01 -3.69206991672046438e-03 0
9.51545993882692187e+00 -2.45026995502267454e-02 0
5.95264080176163501e-01 -1.63332360696050627e-03 0
-5.37998637749154268e-02 5.98514485009563947e-04 0
-3.96138161392286803e-01 -3.49718687006359344e-02 0
4.03614445938675548e+00 2.13081101578699278e-01 0
2.52465571253895515e-01 1.28463475782210849e-02 0
-2.27374212179167097e-02 1.33769325831431822e-04 0
4.72555169259326946e-01 4.36984613348568533e-03 0
3.61230304073273345e+00 1.32594766527861178e-02 0
7.47423379969812363e+00 2.73828186429774557e-02 0