/*--------------------------------*- C++ -*----------------------------------*\
| =========                 |                                                 |
| \\      /  F ield         | OpenFOAM: The Open Source CFD Toolbox           |
|  \\    /   O peration     | Version:  2006                                  |
|   \\  /    A nd           | Website:  www.openfoam.com                      |
|    \\/     M anipulation  |                                                 |
\*---------------------------------------------------------------------------*/
FoamFile
{
    version     2.0;
    format      ascii;
    class       volScalarField;
    location    "0.2";
    object      p;
}
// * * * * * * * * * * * * * * * * * * * * * * * * * * * * * * * * * * * * * //

dimensions      [0 2 -2 0 0 0 0];


internalField   nonuniform List<scalar> 
2790
(
67.2333
67.1215
67.3456
67.8517
68.5477
69.4031
70.4159
71.5853
72.9072
74.3758
75.9851
77.7287
79.5992
81.5877
83.6836
85.874
88.1433
90.4726
92.8387
95.2138
97.5651
99.8542
102.039
104.074
105.913
107.516
108.849
109.889
110.613
111.102
67.0358
67.0348
67.2841
67.7876
68.4802
69.3329
70.342
71.5064
72.8223
74.284
75.886
77.6219
79.4844
81.4649
83.5531
85.7365
88
90.3251
92.6894
95.066
97.4228
99.7222
101.922
103.978
105.843
107.475
108.837
109.91
110.647
111.161
66.8481
66.9173
67.1863
67.6803
68.3609
69.2024
70.1984
71.3472
72.645
74.0866
75.6663
77.3779
79.2144
81.1674
83.2269
85.381
87.6154
89.9127
92.2518
94.6072
96.9486
99.2404
101.442
103.509
105.396
107.057
108.45
109.554
110.292
110.806
66.6395
66.7398
67.0221
67.5086
68.1761
69.0031
69.982
71.11
72.3834
73.797
75.3451
77.0216
78.8195
80.7307
82.7455
84.8526
87.0385
89.2871
91.579
93.8907
96.1942
98.4565
100.639
102.7
104.591
106.267
107.677
108.794
109.514
109.991
66.4004
66.5151
66.8067
67.2871
67.9399
68.7483
69.7046
70.8053
72.0464
73.4229
74.9292
76.5589
78.3052
80.1598
82.1137
84.1559
86.2739
88.4529
90.6751
92.9195
95.1607
97.3687
99.5085
101.539
103.416
105.088
106.5
107.623
108.323
108.762
66.1264
66.2472
66.5421
67.0142
67.6493
68.4345
69.3627
70.4299
71.6318
72.9633
74.4184
75.9909
77.6735
79.4583
81.3359
83.2962
85.3273
87.4153
89.5445
91.696
93.8474
95.9723
98.0393
100.011
101.846
103.494
104.895
106.021
106.72
107.149
65.8156
65.9379
66.231
66.6918
67.3065
68.0647
68.96
69.988
71.1441
72.4227
73.8178
75.3227
76.93
78.6314
80.4178
82.279
84.2036
86.1789
88.1903
90.221
92.2517
94.2596
96.2179
98.0948
99.8526
101.448
102.822
103.954
104.677
105.164
65.4677
65.5886
65.8757
66.3221
66.9137
67.6411
68.4989
69.4823
70.5861
71.8045
73.131
74.5585
76.0792
77.6844
79.3647
81.1098
82.9084
84.7482
86.6155
88.4952
90.3702
92.2213
94.0267
95.7613
97.3958
98.898
100.217
101.346
102.114
102.712
65.0829
65.2006
65.4785
65.9076
66.4731
67.1664
67.9823
68.9158
69.9614
71.1126
72.3625
73.7035
75.1269
76.6236
78.1836
79.7959
81.4488
83.1299
84.8256
86.5213
88.2013
89.8492
91.4474
92.9781
94.423
95.7659
96.9749
98.069
98.8834
99.6723
64.6624
64.7754
65.0416
65.4507
65.9872
66.6431
67.4132
68.2923
69.2741
70.3518
71.5178
72.7637
74.08
75.4567
76.8828
78.3462
79.8345
81.3337
82.8296
84.3066
85.7487
87.14
88.4653
89.7123
90.8737
91.9532
92.9479
93.9211
94.7297
95.724
64.2075
64.3148
64.5673
64.9538
65.4589
66.0744
66.7952
67.6155
68.5287
69.5273
70.6027
71.7458
72.9462
74.1924
75.4722
76.7721
78.0776
79.3729
80.6412
81.8644
83.0235
84.0996
85.0754
85.9389
86.6884
87.345
87.9417
88.6107
89.2756
90.4956
63.7198
63.8208
64.0578
64.4197
64.8911
65.4636
66.1318
66.8897
67.73
68.6445
69.6237
70.6574
71.734
72.8408
73.9635
75.0867
76.1934
77.2648
78.2799
79.2158
80.0472
80.7475
81.29
81.6527
81.8253
81.8297
81.7245
81.7278
81.9035
83.2212
63.2014
63.2953
63.5156
63.8512
64.2868
64.8139
65.427
66.1194
66.8832
67.7094
68.5877
69.5065
70.453
71.4128
72.3696
73.3054
74.2
75.0305
75.7706
76.3901
76.8539
77.1216
77.1479
76.8845
76.287
75.3375
74.0657
72.7347
71.6244
72.6407
62.6543
62.7407
62.9433
63.251
63.6491
64.1291
64.6848
65.3091
65.9936
66.7283
67.5019
68.3017
69.1133
69.9205
70.7048
71.4453
72.1181
72.6955
73.1445
73.4259
73.4915
73.2817
72.7223
71.7201
70.16
67.9134
64.8457
61.0336
56.7383
55.7043
62.0809
62.1594
62.3433
62.6221
62.9814
63.4127
63.9093
64.4637
65.0667
65.7075
66.3738
67.0517
67.7252
68.3762
68.9839
69.5244
69.9699
70.2873
70.4368
70.3686
70.0199
69.3086
68.1243
66.3139
63.6567
59.827
54.3022
46.359
34.559
22.3418
-92.6416
-93.2802
-94.557
-96.4712
-99.0541
-102.213
-105.735
-109.261
-112.296
-114.242
-114.475
-112.461
-107.882
-100.698
-91.226
-80.1025
-68.1438
-56.1795
-44.9059
-34.8038
-26.1294
-18.4755
-11.8046
-6.67489
-2.95808
-0.419849
1.14035
1.89065
1.96074
1.45618
-92.6258
-93.3195
-94.6816
-96.6824
-99.393
-102.713
-106.424
-110.157
-113.395
-115.514
-115.87
-113.916
-109.337
-102.102
-92.5419
-81.3085
-69.2246
-57.1249
-45.7123
-35.476
-26.6756
-18.892
-12.1349
-6.96145
-3.19713
-0.614633
0.985016
1.77159
1.87722
1.44386
-93.011
-93.864
-95.4202
-97.6248
-100.583
-104.181
-108.198
-112.247
-115.785
-118.154
-118.67
-116.76
-112.118
-104.706
-94.8923
-83.3717
-70.9984
-58.6248
-46.9652
-36.5169
-27.4933
-19.4912
-12.6093
-7.3532
-3.51473
-0.86859
0.786138
1.62357
1.77959
1.42936
-93.9487
-95.0248
-96.8287
-99.324
-102.636
-106.64
-111.104
-115.615
-119.592
-122.322
-123.068
-121.214
-116.447
-108.72
-98.4707
-86.4629
-73.6062
-60.7859
-48.7374
-37.9648
-28.5796
-20.2666
-13.2457
-7.87602
-3.94108
-1.21313
0.513645
1.41903
1.64309
1.39098
-95.5655
-96.8868
-98.9579
-101.808
-105.567
-110.096
-115.147
-120.268
-124.821
-128.022
-129.054
-127.249
-122.279
-114.086
-103.213
-90.522
-76.9963
-63.5675
-50.9967
-39.7776
-29.9053
-21.2095
-14.0277
-8.51772
-4.46422
-1.63621
0.179201
1.1686
1.47675
1.33481
-97.9559
-99.4996
-101.834
-105.085
-109.37
-114.535
-120.307
-126.187
-131.459
-135.244
-136.616
-134.827
-129.545
-120.716
-109.027
-95.458
-81.0876
-66.9031
-53.6856
-41.8837
-31.4105
-22.3083
-14.9398
-9.26711
-5.07681
-2.13315
-0.214667
0.872893
1.27962
1.25789
-101.137
-102.811
-105.383
-109.062
-113.935
-119.835
-126.456
-133.236
-139.368
-143.844
-145.6
-143.781
-138.045
-128.413
-115.727
-101.108
-85.745
-70.6836
-56.7129
-44.1617
-33.021
-23.5576
-15.9647
-10.109
-5.76761
-2.69564
-0.661839
0.536195
1.05441
1.16073
-104.886
-106.597
-109.38
-113.504
-119.016
-125.735
-133.317
-141.131
-148.257
-153.526
-155.693
-153.78
-147.451
-136.861
-123.034
-107.234
-90.7785
-74.7518
-59.907
-46.4899
-34.7191
-24.9194
-17.0765
-11.0243
-6.52282
-3.31373
-1.15523
0.163253
0.803883
1.0438
-108.816
-110.454
-113.44
-118.023
-124.215
-131.823
-140.463
-149.426
-157.666
-163.812
-166.403
-164.33
-157.27
-145.616
-130.574
-113.532
-95.948
-78.8999
-63.0476
-48.778
-36.4971
-26.343
-18.2413
-11.9901
-7.32605
-3.97563
-1.68639
-0.240109
0.531596
0.908426
-112.246
-113.823
-117.046
-122.108
-129.013
-137.555
-147.312
-157.501
-166.938
-174.025
-177.027
-174.742
-166.84
-154.107
-137.912
-119.653
-100.964
-82.8293
-65.9861
-51.0229
-38.2605
-27.7679
-19.4207
-12.9801
-8.15872
-4.66797
-2.24568
-0.66718
0.241699
0.756627
-114.588
-116.128
-119.639
-125.194
-132.824
-142.298
-153.173
-164.596
-175.251
-183.275
-186.636
-184.142
-175.403
-161.725
-144.56
-125.245
-105.451
-86.3071
-68.6457
-53.0887
-39.9129
-29.131
-20.5728
-13.9656
-9.00055
-5.37606
-2.82243
-1.11044
-0.0610931
0.591069
-115.246
-116.895
-120.735
-126.764
-135.094
-145.414
-157.299
-169.825
-181.541
-190.328
-193.951
-191.516
-182.301
-167.996
-149.96
-129.824
-109.082
-89.1078
-70.8315
-54.8375
-41.3615
-30.3705
-21.6555
-14.9173
-9.83033
-6.08426
-3.40509
-1.56161
-0.371513
0.415062
-114.07
-115.854
-120.093
-126.624
-135.526
-146.577
-159.285
-172.686
-185.231
-194.616
-198.551
-196.231
-186.95
-172.162
-153.536
-132.758
-111.444
-90.9928
-72.3731
-56.1493
-42.524
-31.4295
-22.6294
-15.8067
-10.6269
-6.77655
-3.9816
-2.01193
-0.6838
0.232519
-111.011
-112.961
-117.682
-124.699
-134.12
-145.743
-159.034
-173.005
-186.032
-195.751
-199.875
-197.519
-188.22
-173.404
-154.684
-133.764
-112.327
-91.7918
-73.1441
-56.9328
-43.3355
-32.262
-23.4608
-16.6086
-11.3709
-7.43798
-4.54061
-2.45308
-0.992485
0.0473901
-105.804
-108.597
-113.869
-121.256
-131.107
-143.128
-156.695
-170.789
-183.773
-193.402
-197.328
-195.073
-186.116
-171.692
-153.333
-132.746
-111.634
-91.4182
-73.0748
-57.1336
-43.7541
-32.8352
-24.1238
-17.3022
-12.0458
-8.05572
-5.07248
-2.8783
-1.29348
-0.13742
61.472
61.5422
61.7066
61.955
62.2738
62.6544
63.0898
63.5717
64.0903
64.6341
65.1897
65.742
66.2735
66.7641
67.1907
67.5265
67.7396
67.7918
67.6362
67.2129
66.4445
65.2264
63.4123
60.7871
57.0157
51.538
43.2877
30.0105
4.19181
-67.2487
60.8207
60.8822
61.0259
61.2424
61.5189
61.8467
62.2182
62.6248
63.056
63.4994
63.9408
64.3637
64.7493
65.0757
65.3176
65.4452
65.4233
65.209
64.7491
63.9754
62.7986
61.0976
58.7007
55.3541
50.6617
43.9646
34.0675
18.9354
-3.23149
-35.4318
60.1321
60.1845
60.3068
60.4903
60.7231
60.9964
61.3023
61.6317
61.9735
62.3146
62.6398
62.9317
63.1701
63.3316
63.389
63.3101
63.057
62.5834
61.8316
60.7284
59.1782
57.0535
54.1784
50.3036
45.0712
37.9742
28.3383
15.4417
-0.159762
-18.0398
59.4075
59.4506
59.5509
59.7006
59.8886
60.1064
60.3456
60.5968
60.8482
61.0861
61.2948
61.4558
61.5479
61.5465
61.4231
61.1439
60.6691
59.9507
58.9294
57.5305
55.6591
53.1926
49.9702
45.7801
40.3517
33.3598
24.4611
13.2728
-0.370253
-16.9269
58.6487
58.6823
58.7603
58.8756
59.0183
59.1799
59.352
59.5245
59.6855
59.8207
59.9138
59.9458
59.8948
59.7355
59.4384
58.9692
58.2876
57.3456
56.0847
54.433
52.3019
49.5816
46.1355
41.7961
36.3649
29.6165
21.3098
11.1495
-1.13122
-15.3484
57.8578
57.8818
57.9372
58.018
58.1152
58.2206
58.3257
58.4201
58.4916
58.5257
58.5058
58.4124
58.2236
57.9136
57.4531
56.808
55.9387
54.7989
53.3334
51.4762
49.1487
46.2571
42.6911
38.3222
33.0062
26.5876
18.9124
9.84181
-0.692264
-12.2976
57.0374
57.0518
57.0847
57.131
57.183
57.2327
57.2716
57.2892
57.2732
57.209
57.0799
56.8666
56.5471
56.0961
55.485
54.6809
53.6461
52.3375
50.7048
48.69
46.2262
43.2371
39.637
35.3321
30.2247
24.2199
17.2406
9.2458
0.236739
-9.48128
56.1905
56.1954
56.2061
56.2183
56.2257
56.2209
56.1951
56.138
56.0373
55.8788
55.6458
55.3194
54.8782
54.2979
53.5511
52.6069
51.4307
49.9835
48.2212
46.0947
43.5494
40.5259
36.9611
32.7906
27.9535
22.3988
16.0948
9.03964
1.25377
-7.01653
55.3205
55.3161
55.305
55.284
55.2479
55.19
55.1017
54.9729
54.7914
54.5435
54.213
53.7817
53.2293
52.5327
51.6665
50.6026
49.3098
47.7541
45.8982
43.7021
41.123
38.1169
34.6398
30.6507
26.1153
21.0108
15.3317
9.09638
2.34083
-4.72862
54.4312
54.4178
54.3856
54.3324
54.2544
54.1456
53.9976
53.8005
53.5429
53.2115
52.791
52.2641
51.6119
50.8131
49.8446
48.6815
47.2966
45.6612
43.7449
41.5162
38.9432
35.995
32.643
28.8639
24.642
19.9727
14.8666
9.35319
3.47559
-2.60017
53.5269
53.5048
53.4523
53.3683
53.2504
53.0932
52.8888
52.6278
52.2995
51.8912
51.3888
50.7764
50.0365
49.15
48.0966
46.8545
45.401
43.7125
41.7651
39.5352
37.0003
34.1401
30.9383
27.3842
23.4748
19.2172
14.6306
9.7486
4.61448
-0.640539
52.612
52.5817
52.51
52.3968
52.2413
52.0387
51.7817
51.4616
51.0684
50.5906
50.0151
49.3276
48.5124
47.5529
46.4314
45.1296
43.6291
41.9111
39.9578
37.7524
35.2802
32.5295
29.4928
26.1686
22.562
18.6867
14.5659
10.2332
5.72898
1.15684
51.6916
51.6536
51.5638
51.4234
51.2327
50.988
50.6827
50.3088
49.857
49.3172
48.6777
47.9257
47.0476
46.0292
44.8556
43.512
41.9838
40.257
38.3187
36.158
33.7665
31.139
28.2745
25.1775
21.858
18.3331
14.6271
10.7714
6.80231
2.80159
50.7707
50.7256
50.6191
50.4535
50.2305
49.9474
49.5982
49.1758
48.6722
48.0782
47.3837
46.5778
45.6488
44.5849
43.3741
42.0047
40.4656
38.7471
36.8406
34.7398
32.4413
29.9446
27.2533
24.3755
21.3241
18.1173
14.7786
11.3366
7.82309
4.30247
49.855
49.8033
49.6815
49.4929
49.2406
48.9229
48.5345
48.0693
47.5205
46.8801
46.1396
45.2898
44.3212
43.2242
41.9895
40.6082
39.0727
37.3763
35.5144
33.4843
31.2862
28.923
26.4014
23.7314
20.9272
18.0069
14.9924
11.9089
8.78386
5.66815
48.95
48.8924
48.7569
48.5475
48.2691
47.9205
47.4977
46.9954
46.4079
45.7287
44.9507
44.0666
43.0688
41.9499
40.7029
39.3218
37.8013
36.138
34.3299
32.3775
30.2832
28.0526
25.6938
23.218
20.6396
17.9758
15.2464
12.4734
9.6802
6.90717
48.0618
47.9988
47.851
47.6234
47.3218
46.9464
46.4938
45.9599
45.3401
44.6293
43.8219
42.9123
41.8946
40.7636
39.5143
38.143
36.6468
35.0245
33.2766
31.4053
29.4153
27.3132
25.1083
22.812
20.4382
18.0028
15.5234
13.0193
10.5099
8.02772
47.1962
47.1286
46.9701
46.7264
46.4048
46.0063
45.5286
44.9684
44.3223
43.5866
42.7572
41.8298
40.8005
39.6657
38.4224
37.0686
35.6036
34.0278
32.3435
30.5545
28.6664
26.6869
24.6255
22.4934
20.3037
18.0708
15.8103
13.5386
11.2725
9.03761
46.3596
46.288
46.1201
45.8627
45.524
45.1061
44.6075
44.026
43.3592
42.6047
41.7598
40.8216
39.7876
38.6559
37.425
36.0947
34.6656
33.1397
31.5203
29.8123
28.0222
26.1578
24.2287
22.2456
20.2205
18.1663
16.0969
14.0262
11.9684
9.94419
45.5583
45.4831
45.3074
45.0383
44.6854
44.2514
43.7359
43.1376
42.4552
41.6873
40.8325
39.8893
38.8564
37.7333
36.5198
35.217
33.8267
32.352
30.797
29.1673
27.4696
25.712
23.9036
22.0545
20.1757
18.2787
16.3756
14.4783
12.599
10.7543
44.7985
44.7204
44.5381
44.2593
43.8946
43.4477
42.9189
42.3079
41.6142
40.8376
39.9778
39.0342
38.007
36.8966
35.704
34.4312
33.081
31.6572
30.1645
28.6089
26.9973
25.3375
23.6381
21.9087
20.159
18.3995
16.6406
14.8928
13.1661
11.4744
44.0868
44.0063
43.8184
43.5317
43.1574
42.7003
42.1614
41.5411
40.84
40.0586
39.1975
38.2574
37.2393
36.1444
34.9747
33.7331
32.4229
31.0484
29.6149
28.1283
26.5955
25.0241
23.4223
21.7987
20.1624
18.5224
16.8881
15.2684
13.672
12.1101
43.4298
43.3472
43.1547
42.8614
42.4796
42.0146
41.4682
40.8416
40.136
39.3529
38.4936
37.5597
36.5528
35.4751
34.3293
33.1187
31.8471
30.5193
29.1407
27.7173
26.2558
24.7633
23.2477
21.7169
20.179
18.6422
17.1147
15.6043
14.1185
12.6665
42.8342
42.7499
42.5534
42.2546
41.8666
41.3957
40.8441
40.2135
39.5059
38.7234
37.8681
36.9421
35.9478
34.888
33.7658
32.5849
31.3497
30.0651
28.7364
27.3696
25.9714
24.5484
23.108
21.6575
20.2042
18.7556
17.3189
15.9009
14.5082
13.1486
42.3071
42.2211
42.0208
41.7171
41.3242
40.8488
40.2935
39.6606
38.9527
38.1723
37.3222
36.405
35.4237
34.3813
33.2815
32.1284
30.9263
29.6804
28.3961
27.0792
25.736
24.373
22.997
21.6148
20.2332
18.8588
17.4982
16.1573
14.842
13.5589
41.856
41.768
41.5636
41.2552
40.8582
40.3795
39.8221
39.1883
38.4813
37.7041
36.8598
35.9516
34.9826
33.9565
32.8772
31.7487
30.5759
29.3637
28.1176
26.8433
25.5468
24.2344
22.9123
21.587
20.2647
18.9516
17.6534
16.3757
15.1238
13.9031
41.4892
41.3982
41.1878
40.8737
40.4725
39.991
39.4319
38.7977
38.092
37.3182
36.4797
35.5798
34.6222
33.6105
32.5489
31.4417
30.2936
29.1096
27.8952
26.6559
25.3975
24.126
22.8475
21.5678
20.293
19.0285
17.7799
16.5522
15.35
14.1781
41.2167
41.1205
40.9022
40.5828
40.1789
39.6955
39.1351
38.5008
37.7964
37.0255
36.1919
35.2989
34.3505
33.3505
32.3032
31.2128
30.0843
28.9226
27.7329
26.5208
25.292
24.052
22.8068
21.562
20.3232
19.0956
17.8844
16.6943
15.5297
14.395
41.0507
40.9322
40.6976
40.3736
39.9688
39.4846
38.9237
38.29
37.5873
36.8194
35.9899
35.1026
34.1613
33.17
32.133
31.0548
29.94
28.7938
27.6212
26.4278
25.219
24.0004
22.7777
21.5563
20.3416
19.1387
17.9525
16.7874
15.6476
14.5369
41.0547
40.869
40.606
40.2765
39.8698
39.3833
38.8206
38.1861
37.4838
36.7173
35.8902
35.0063
34.0694
33.0837
32.0532
30.9826
29.8763
28.7395
27.5771
26.3945
25.1972
23.9907
22.7803
21.5716
20.3698
19.1798
18.0064
16.8541
15.7267
14.628
-173.069
-152.971
-122.76
-58.7124
-64.4585
-69.6208
-37.176
-50.1445
-60.5492
-35.4386
-47.5736
-56.6296
-29.7084
-39.4512
-47.4004
-23.758
-31.8664
-38.8214
-19.0735
-25.9022
-31.7857
-15.081
-20.7962
-25.6993
-11.5195
-16.316
-20.4129
-8.35853
-12.4126
-15.8611
-5.55834
-9.00842
-11.9342
-3.07058
-6.02634
-8.52874
-0.855926
-3.40521
-5.56235
1.11766
-1.09561
-2.96908
2.87728
0.943145
-0.695769
4.44589
2.74457
1.30066
5.8431
4.3366
3.05552
7.08582
5.74276
4.59814
8.18869
6.98302
5.95307
9.1645
8.07445
7.14102
10.0243
9.03155
8.17942
10.7779
9.86686
9.08311
11.4331
10.5905
9.86416
11.9977
11.2121
10.5335
12.4758
11.7371
11.098
12.8753
12.1746
11.5671
13.1931
12.5222
11.94
13.443
12.7941
12.2301
13.6061
12.9725
12.4217
13.7121
13.0889
12.5443
-97.0242
-104.052
-109.654
-116.962
-127.048
-139.213
-152.664
-166.383
-178.821
-187.978
-191.794
-189.522
-181
-167.208
-149.553
-129.708
-109.346
-89.8425
-72.1362
-56.7271
-43.7597
-33.1332
-24.6062
-17.8786
-12.6452
-8.62532
-5.57432
-3.28573
-1.5856
-0.32038
-82.0828
-95.1027
-103.341
-112.106
-122.699
-134.723
-147.597
-160.447
-171.909
-180.281
-183.763
-181.398
-173.222
-160.115
-143.395
-124.646
-105.432
-87.0253
-70.287
-55.6732
-43.3155
-33.1234
-24.8798
-18.314
-13.1499
-9.13175
-6.03468
-3.66694
-1.8631
-0.496784
-75.5761
-89.7365
-98.8565
-107.935
-118.476
-130.069
-142.084
-153.745
-163.913
-171.161
-173.902
-171.104
-163.057
-150.644
-135.069
-117.744
-100.043
-83.0776
-67.599
-54.0105
-42.4352
-32.8032
-24.9328
-18.5928
-13.5437
-9.56015
-6.44127
-4.01268
-2.11999
-0.66283
-68.6855
-82.236
-93.0898
-103.18
-113.627
-124.512
-135.456
-145.768
-154.416
-160.122
-161.632
-158.234
-150.408
-138.936
-124.835
-109.286
-93.4297
-78.189
-64.1997
-51.8147
-41.1566
-32.1855
-24.7636
-18.7061
-13.8149
-9.89907
-6.78411
-4.3151
-2.3507
-0.814785
-58.2168
-71.056
-83.2004
-94.5524
-105.373
-115.853
-125.844
-134.808
-141.868
-145.887
-146.195
-142.63
-135.527
-125.452
-113.208
-99.7434
-85.9685
-72.6337
-60.2717
-49.197
-39.5405
-31.2985
-24.3811
-18.6522
-13.9572
-10.1408
-7.05588
-4.56822
-2.55096
-0.949973
-48.0426
-59.3734
-71.3241
-82.8608
-93.5755
-103.514
-112.566
-120.292
-125.983
-128.862
-128.681
-125.527
-119.575
-111.201
-101.018
-89.7561
-78.1272
-66.7342
-56.0254
-46.2867
-37.661
-30.1807
-23.8023
-18.4361
-13.9692
-10.281
-7.25169
-4.76767
-2.71747
-1.06642
-39.3138
-48.7976
-59.5476
-70.2573
-80.1836
-89.2209
-97.2469
-103.906
-108.67
-111.056
-110.978
-108.556
-103.897
-97.2593
-89.0892
-79.9329
-70.3381
-60.7865
-51.6557
-43.207
-35.5926
-28.8748
-23.0494
-18.0676
-13.8539
-10.3191
-7.36932
-4.91093
-2.84808
-1.16293
-31.8353
-39.6428
-48.8679
-58.2799
-67.0537
-75.0003
-81.9969
-87.7701
-91.9477
-94.2046
-94.4847
-92.8628
-89.4261
-84.3593
-77.98
-70.6888
-62.9027
-55.0046
-47.3112
-40.0586
-33.4013
-27.4223
-22.1476
-17.5609
-13.6181
-10.2577
-7.40905
-4.99729
-2.94182
-1.23903
-25.478
-31.9236
-39.6834
-47.7253
-55.2796
-62.1341
-68.1783
-73.2084
-76.9641
-79.213
-79.879
-78.9766
-76.58
-72.8283
-67.9467
-62.2258
-55.9809
-49.5145
-43.0897
-36.9154
-31.1414
-25.8618
-21.1226
-16.9324
-13.2717
-10.1022
-7.37344
-5.02767
-2.9988
-1.29484
-20.1005
-25.4756
-31.9775
-38.7773
-45.2117
-51.0795
-56.2881
-60.6858
-64.0846
-66.3209
-67.2935
-66.9681
-65.4025
-62.7029
-59.0295
-54.5925
-49.6289
-44.3756
-39.0488
-33.8293
-28.8566
-24.2276
-20.0004
-16.2003
-12.8268
-9.86019
-7.26697
-5.00447
-3.02007
-1.33102
-15.526
-20.0619
-25.5355
-31.2869
-36.763
-41.7879
-46.2867
-50.1457
-53.2248
-55.4004
-56.5727
-56.6796
-55.7549
-53.8771
-51.161
-47.7582
-43.8458
-39.6083
-35.2207
-30.8368
-26.5821
-22.5506
-18.8058
-15.3836
-12.2972
-9.54104
-7.09564
-4.9313
-3.00754
-1.34863
-11.604
-15.4755
-20.1219
-25.014
-29.6953
-34.0179
-37.9229
-41.3235
-44.1121
-46.1918
-47.4731
-47.8873
-47.4451
-46.2009
-44.2364
-41.6606
-38.6052
-35.2123
-31.6224
-27.9638
-24.3464
-20.8579
-17.5623
-14.5015
-11.6974
-9.15526
-6.86667
-4.81276
-2.9638
-1.34909
-8.21978
-11.5583
-15.5386
-19.7318
-23.7608
-27.5032
-30.9133
-33.9243
-36.4512
-38.4168
-39.7436
-40.3679
-40.2835
-39.5244
-38.1475
-36.2308
-33.8713
-31.1778
-28.2616
-25.2285
-22.1728
-19.1734
-16.292
-13.5725
-11.0423
-8.71406
-6.58805
-4.6542
-2.892
-1.33407
-5.28471
-8.19045
-11.6309
-15.2547
-18.7487
-22.0122
-25.01
-27.6901
-29.9847
-31.8301
-33.1622
-33.9252
-34.1025
-33.7127
-32.7939
-31.4012
-29.6055
-27.4893
-25.14
-22.6435
-20.0795
-17.5175
-15.0145
-12.6141
-10.3463
-8.2289
-6.26827
-4.46144
-2.79568
-1.30543
-2.72938
-5.28012
-8.2797
-11.4374
-14.4915
-17.3588
-20.0123
-22.4114
-24.5011
-26.2288
-27.5416
-28.3924
-28.7589
-28.6488
-28.0862
-27.1094
-25.7697
-24.1288
-22.2548
-20.2167
-18.0809
-15.9073
-13.7474
-11.6426
-9.62365
-7.71116
-5.91601
-4.24063
-2.67865
-1.26518
-0.498619
-2.75574
-5.39272
-8.16686
-10.8577
-13.396
-15.7613
-17.9214
-19.8317
-21.4481
-22.7274
-23.6304
-24.1319
-24.2324
-23.9462
-23.2991
-22.3274
-21.0771
-19.6004
-17.9525
-16.1877
-14.357
-12.506
-10.6727
-8.8874
-7.17185
-5.5399
-3.99798
-2.54487
-1.21536
1.45207
-0.560513
-2.89745
-5.35429
-7.74383
-10.008
-12.1311
-14.0878
-15.8413
-17.3546
-18.5939
-19.5242
-20.1202
-20.3783
-20.306
-19.9197
-19.2446
-18.3146
-17.1694
-15.8523
-14.4076
-12.8782
-11.3034
-9.71773
-8.14971
-6.6214
-5.1483
-3.73969
-2.39833
-1.15802
3.1591
1.35133
-0.736011
-2.92913
-5.06765
-7.10248
-9.02176
-10.8052
-12.4224
-13.8421
-15.0368
-15.977
-16.6381
-17.0137
-17.1066
-16.9264
-16.4902
-15.8224
-14.9529
-13.9156
-12.7461
-11.4798
-10.1507
-8.78913
-7.42161
-6.06953
-4.74918
-3.47174
-2.24298
-1.09517
4.65257
3.01709
1.13824
-0.834842
-2.76352
-4.60594
-6.35308
-7.98871
-9.48756
-10.8232
-11.9722
-12.9103
-13.6149
-14.0776
-14.2975
-14.2799
-14.0358
-13.5823
-12.9418
-12.1404
-11.2064
-10.169
-9.057
-7.897
-6.71293
-5.52513
-4.34999
-3.19983
-2.08261
-1.02875
5.95753
4.46742
2.76324
0.974278
-0.778515
-2.4591
-4.06067
-5.57016
-6.96641
-8.22695
-9.33165
-10.2594
-10.9916
-11.5182
-11.8358
-11.9463
-11.8563
-11.5777
-11.1267
-10.5235
-9.79036
-8.95119
-8.03
-7.04994
-6.03239
-4.99629
-3.95764
-2.92933
-1.92086
-0.960588
7.09482
5.72754
4.16996
2.5353
0.930137
-0.614179
-2.09253
-3.49436
-4.80179
-5.99553
-7.05806
-7.97176
-8.72024
-9.29289
-9.68496
-9.89594
-9.92938
-9.79305
-9.49871
-9.06145
-8.49891
-7.83038
-7.07589
-6.25533
-5.38765
-4.49023
-3.57841
-2.66521
-1.76112
-0.892379
8.08202
6.81847
5.38389
3.87852
2.39724
0.967617
-0.406548
-1.71668
-2.94754
-4.08243
-5.10606
-6.00339
-6.76004
-7.36545
-7.81401
-8.10365
-8.23564
-8.21478
-8.04929
-7.75048
-7.33207
-6.80961
-6.19973
-5.51943
-4.78539
-4.01343
-3.21801
-2.41204
-1.60656
-0.825698
8.93341
7.7572
6.42559
5.02827
3.65068
2.31731
1.03095
-0.201392
-1.36658
-2.45006
-3.43829
-4.31831
-5.07768
-5.70599
-6.19716
-6.54811
-6.7585
-6.83094
-6.771
-6.58701
-6.28961
-5.89129
-5.40581
-4.84768
-4.23153
-3.57167
-2.88165
-2.17402
-1.46009
-0.761989
9.66146
8.55832
7.31239
6.00488
4.71356
3.46047
2.24763
1.08079
-0.0285887
-1.06765
-2.02435
-2.8873
-3.64596
-4.28988
-4.81292
-5.21138
-5.48381
-5.63121
-5.65717
-5.56774
-5.37111
-5.07729
-4.69772
-4.24476
-3.73125
-3.17012
-2.574
-1.95498
-1.32444
-0.702579
10.2747
9.23208
8.05671
6.82306
5.60276
4.41593
3.26396
2.15164
1.08905
0.0876788
-0.841687
-1.6892
-2.44425
-3.09828
-3.64487
-4.0798
-4.40082
-4.60783
-4.70293
-4.69044
-4.57664
-4.36962
-4.07887
-3.715
-3.28932
-2.81353
-2.29937
-1.75845
-1.20205
-0.648636
10.783
9.7894
8.6711
7.49708
6.33417
5.20096
4.09838
3.03048
2.00628
1.03617
0.129997
-0.703178
-1.45426
-2.1149
-2.67878
-3.14147
-3.5002
-3.75407
-3.9041
-3.95329
-3.90649
-3.77024
-3.55254
-3.26255
-2.91032
-2.50648
-2.06198
-1.58793
-1.09546
-0.60143
11.1876
10.2326
9.15905
8.0318
6.91396
5.82296
4.75937
3.72667
2.73307
1.78813
0.900938
0.0799008
-0.666721
-1.33114
-1.90717
-2.39024
-2.77728
-3.0668
-3.25907
-3.35615
-3.36181
-3.28142
-3.12181
-2.89101
-2.59804
-2.25264
-1.86509
-1.44601
-1.00634
-0.561579
11.4998
10.5732
9.53269
8.43994
7.35531
6.29542
5.2606
4.25393
3.28301
2.35682
1.48388
0.672114
-0.070879
-0.737865
-1.32276
-1.82084
-2.2288
-2.54477
-2.76851
-2.90138
-2.9464
-2.9081
-2.79244
-2.60661
-2.35883
-2.05818
-1.71433
-1.3375
-0.938368
-0.531085
11.7079
10.8
9.7816
8.71232
7.65029
6.6115
5.59621
4.60727
3.65193
2.73875
1.876
1.07149
0.332339
-0.335004
-0.92469
-1.43195
-1.85328
-2.18658
-2.43123
-2.58815
-2.65982
-2.6502
-2.56463
-2.40973
-2.19315
-1.92343
-1.60983
-1.26215
-0.890746
-0.50855
11.834
10.9306
9.92229
8.8647
7.81357
6.78466
5.77844
4.79768
3.84939
2.94185
2.08293
1.27985
0.539934
-0.129741
-0.723422
-1.23656
-1.66573
-2.00874
-2.26481
-2.43465
-2.52046
-2.52589
-2.45598
-2.31701
-2.11633
-1.8622
-1.5636
-1.22997
-0.871039
-0.496994
)
;

boundaryField
{
    inlet
    {
        type            zeroGradient;
    }
    outlet
    {
        type            fixedValue;
        value           uniform 0;
    }
    flap
    {
        type            zeroGradient;
    }
    upperWall
    {
        type            zeroGradient;
    }
    lowerWall
    {
        type            zeroGradient;
    }
    frontAndBack
    {
        type            empty;
    }
}


// ************************************************************************* //
