/*--------------------------------*- C++ -*----------------------------------*\
| =========                 |                                                 |
| \\      /  F ield         | OpenFOAM: The Open Source CFD Toolbox           |
|  \\    /   O peration     | Version:  2006                                  |
|   \\  /    A nd           | Website:  www.openfoam.com                      |
|    \\/     M anipulation  |                                                 |
\*---------------------------------------------------------------------------*/
FoamFile
{
    version     2.0;
    format      ascii;
    class       pointVectorField;
    location    "0.2";
    object      pointDisplacement;
}
// * * * * * * * * * * * * * * * * * * * * * * * * * * * * * * * * * * * * * //

dimensions      [0 1 0 0 0 0 0];


internalField   nonuniform List<vector> 
5828
(
(0 0 0)
(2.20945e-06 0 0)
(5.13526e-06 0 0)
(9.85473e-06 0 0)
(1.77901e-05 0 0)
(3.0942e-05 0 0)
(5.21607e-05 0 0)
(8.53984e-05 0 0)
(0.000135941 0 0)
(0.000210579 0 0)
(0.000317666 0 0)
(0.000466987 0 0)
(0.000669379 0 0)
(0.000936008 0 0)
(0.00127725 0 0)
(0.00170115 0 0)
(0.00221138 0 0)
(0.00280487 0 0)
(0.00346907 0 0)
(0.00417927 0 0)
(0.00489622 0 0)
(0.00556473 0 0)
(0.00611411 0 0)
(0.00646142 0 0)
(0.00651886 0 0)
(0.0062066 0 0)
(0.00547299 0 0)
(0.00432546 0 0)
(0.00288334 0 0)
(0.00149722 0 0)
(-1.82146e-16 0 -1.57164e-22)
(0 0 0)
(2.09425e-06 8.88105e-09 0)
(4.88801e-06 2.16532e-08 0)
(9.41553e-06 4.43565e-08 0)
(1.70532e-05 8.61688e-08 0)
(2.97528e-05 1.61883e-07 0)
(5.0306e-05 2.95418e-07 0)
(8.25987e-05 5.24536e-07 0)
(0.000131847 9.07205e-07 0)
(0.000204781 1.52996e-06 0)
(0.000309711 2.51854e-06 0)
(0.000456424 4.05112e-06 0)
(0.000655823 6.3744e-06 0)
(0.000919237 9.82289e-06 0)
(0.00125735 1.48423e-05 0)
(0.00167868 2.20185e-05 0)
(0.00218762 3.21143e-05 0)
(0.00278211 4.61193e-05 0)
(0.00345096 6.53176e-05 0)
(0.00417125 9.13812e-05 0)
(0.00490599 0.000126495 0)
(0.00560278 0.000173508 0)
(0.00619423 0.000236098 0)
(0.00660126 0.000318887 0)
(0.0067404 0.00042742 0)
(0.0065368 0.000567807 0)
(0.00594454 0.000745639 0)
(0.00497793 0.000963025 0)
(0.00376242 0.00121001 0)
(0.00263357 0.00143891 0)
(0.00176431 0.00167606 -1.22843e-13)
(0 0 0)
(1.94486e-06 1.70529e-08 0)
(4.56736e-06 4.16789e-08 0)
(8.84451e-06 8.55443e-08 0)
(1.60936e-05 1.66439e-07 0)
(2.82028e-05 3.13114e-07 0)
(4.78888e-05 5.72109e-07 0)
(7.89558e-05 1.01695e-06 0)
(0.000126541 1.76057e-06 0)
(0.000197317 2.97151e-06 0)
(0.000299585 4.89461e-06 0)
(0.000443214 7.87641e-06 0)
(0.000639328 1.23958e-05 0)
(0.000899696 1.91003e-05 0)
(0.00123574 2.88494e-05 0)
(0.00165715 4.27664e-05 0)
(0.00217003 6.23043e-05 0)
(0.00277477 8.93319e-05 0)
(0.00346357 0.00012625 0)
(0.00421801 0.000176154 0)
(0.00500696 0.000243039 0)
(0.0057854 0.000332057 0)
(0.00649493 0.000449753 0)
(0.00706694 0.000604176 0)
(0.00742967 0.000804577 0)
(0.00752053 0.00106022 0)
(0.00730503 0.00137737 0)
(0.00680404 0.00175267 0)
(0.0061313 0.00215977 0)
(0.0055459 0.00252377 0)
(0.00507281 0.0028057 -3.38497e-14)
(0 0 0)
(1.8783e-06 2.45789e-08 0)
(4.42292e-06 6.0194e-08 0)
(8.58434e-06 1.23706e-07 0)
(1.5654e-05 2.40893e-07 0)
(2.74916e-05 4.53479e-07 0)
(4.67839e-05 8.28998e-07 0)
(7.73082e-05 1.4741e-06 0)
(0.000124191 2.55243e-06 0)
(0.000194128 4.30789e-06 0)
(0.00029551 7.09398e-06 0)
(0.000438408 1.14095e-05 0)
(0.000634327 1.79407e-05 0)
(0.000895683 2.76104e-05 0)
(0.00123494 4.16342e-05 0)
(0.00166336 6.15857e-05 0)
(0.00218941 8.9476e-05 0)
(0.00281683 0.000127854 0)
(0.00354246 0.000179944 0)
(0.00435422 0.000249821 0)
(0.00522927 0.000342656 0)
(0.00613317 0.000464986 0)
(0.00702041 0.000624944 0)
(0.00783726 0.000832248 0)
(0.00852778 0.00109753 0)
(0.00904369 0.00143027 0)
(0.00935813 0.00183403 0)
(0.00948156 0.00229707 0)
(0.00947523 0.00277578 0)
(0.00946109 0.00317095 0)
(0.00936481 0.00343861 -3.83304e-14)
(0 0 0)
(1.81537e-06 3.16189e-08 0)
(4.28368e-06 7.75176e-08 0)
(8.33207e-06 1.59363e-07 0)
(1.52274e-05 3.10311e-07 0)
(2.6803e-05 5.84012e-07 0)
(4.5719e-05 1.06719e-06 0)
(7.57335e-05 1.89658e-06 0)
(0.000121975 3.28146e-06 0)
(0.000191186 5.53283e-06 0)
(0.00029189 9.09958e-06 0)
(0.000434426 1.46118e-05 0)
(0.000630788 2.29308e-05 0)
(0.000894211 3.52043e-05 0)
(0.00123845 5.29276e-05 0)
(0.00167673 7.80092e-05 0)
(0.0022204 0.000112845 0)
(0.00287726 0.000160407 0)
(0.00364985 0.000224357 0)
(0.00453367 0.000309202 0)
(0.00551584 0.000420489 0)
(0.00657442 0.000565026 0)
(0.00767886 0.000751027 0)
(0.00879216 0.000987946 0)
(0.00987483 0.00128551 0)
(0.0108906 0.0016511 0)
(0.0118125 0.00208422 0)
(0.0126236 0.00256614 0)
(0.0133078 0.00304373 0)
(0.0138335 0.00341232 0)
(0.0140837 0.00364039 -2.55018e-13)
(0 0 0)
(1.7555e-06 3.81515e-08 0)
(4.14964e-06 9.35643e-08 0)
(8.0878e-06 1.92284e-07 0)
(1.48133e-05 3.74145e-07 0)
(2.61339e-05 7.03507e-07 0)
(4.46853e-05 1.28418e-06 0)
(7.42098e-05 2.27937e-06 0)
(0.000119845 3.93803e-06 0)
(0.000188394 6.62848e-06 0)
(0.000288532 1.08795e-05 0)
(0.000430906 1.7428e-05 0)
(0.000628059 2.72723e-05 0)
(0.000894134 4.17281e-05 0)
(0.00124432 6.24835e-05 0)
(0.00169399 9.16529e-05 0)
(0.00225761 0.000131827 0)
(0.00294742 0.00018612 0)
(0.00377201 0.000258232 0)
(0.00473494 0.000352518 0)
(0.0058337 0.00047409 0)
(0.00705916 0.000628921 0)
(0.00839576 0.000823865 0)
(0.00982247 0.00106638 0)
(0.0113143 0.00136352 0)
(0.0128428 0.00171936 0)
(0.0143734 0.00212978 0)
(0.0158521 0.00257328 0)
(0.0171758 0.00299719 0)
(0.0181626 0.00330632 0)
(0.0186726 0.00349056 -3.17637e-22)
(0 0 0)
(1.69848e-06 4.41705e-08 0)
(4.02088e-06 1.08296e-07 0)
(7.85163e-06 2.22347e-07 0)
(1.44108e-05 4.32077e-07 0)
(2.54809e-05 8.11232e-07 0)
(4.36727e-05 1.4784e-06 0)
(7.27128e-05 2.61934e-06 0)
(0.000117748 4.51616e-06 0)
(0.000185641 7.58399e-06 0)
(0.000285223 1.24147e-05 0)
(0.000427453 1.98265e-05 0)
(0.000625429 3.09154e-05 0)
(0.000894216 4.71059e-05 0)
(0.00125043 7.01926e-05 0)
(0.00171162 0.00010237 0)
(0.00229535 0.00014624 0)
(0.00301818 0.000204805 0)
(0.00389457 0.000281432 0)
(0.00493573 0.000379817 0)
(0.00614882 0.000503938 0)
(0.00753632 0.000658012 0)
(0.00909576 0.000846387 0)
(0.0108194 0.00107325 0)
(0.0126928 0.00134182 0)
(0.014691 0.00165245 0)
(0.0167671 0.0019988 0)
(0.0188273 0.002361 0)
(0.0206864 0.00269518 0)
(0.0220314 0.00292593 0)
(0.0227444 0.00304792 1.76993e-13)
(0 0 0)
(1.64435e-06 4.96887e-08 0)
(3.89766e-06 1.21727e-07 0)
(7.6238e-06 2.49544e-07 0)
(1.40195e-05 4.84033e-07 0)
(2.48408e-05 9.06954e-07 0)
(4.26718e-05 1.64929e-06 0)
(7.12189e-05 2.91531e-06 0)
(0.000115631 5.01366e-06 0)
(0.000182819 8.39566e-06 0)
(0.000281754 1.36999e-05 0)
(0.000423677 2.18002e-05 0)
(0.0006222 3.38533e-05 0)
(0.000893239 5.13379e-05 0)
(0.00125475 7.60777e-05 0)
(0.00172624 0.000110237 0)
(0.00232812 0.000156283 0)
(0.00308084 0.000216893 0)
(0.004004 0.000294831 0)
(0.00511538 0.000392761 0)
(0.00643015 0.000513048 0)
(0.00796002 0.000657544 0)
(0.00971235 0.000827371 0)
(0.0116885 0.0010227 0)
(0.0138802 0.00124235 0)
(0.0162612 0.00148304 0)
(0.0187707 0.00173749 0)
(0.0212797 0.00199072 0)
(0.0235353 0.00221323 0)
(0.0251242 0.00235588 0)
(0.0259485 0.00242924 1.017e-14)
(0 0 0)
(1.59331e-06 5.47386e-08 0)
(3.78047e-06 1.33922e-07 0)
(7.40492e-06 2.73985e-07 0)
(1.36395e-05 5.30183e-07 0)
(2.4212e-05 9.90933e-07 0)
(4.16755e-05 1.79726e-06 0)
(6.97088e-05 3.168e-06 0)
(0.000113449 5.43193e-06 0)
(0.000179836 9.06644e-06 0)
(0.00027794 1.47413e-05 0)
(0.000419231 2.33635e-05 0)
(0.000617747 3.61173e-05 0)
(0.000890121 5.44899e-05 0)
(0.00125543 8.02716e-05 0)
(0.00173487 0.000115517 0)
(0.00235118 0.000162448 0)
(0.003128 0.000223295 0)
(0.00408901 0.000300055 0)
(0.005257 0.000394178 0)
(0.00665292 0.000506202 0)
(0.00829464 0.000635374 0)
(0.0101954 0.000779349 0)
(0.0123608 0.000934075 0)
(0.0147836 0.00109396 0)
(0.017433 0.00125231 0)
(0.0202346 0.00140184 0)
(0.0230325 0.00153413 0)
(0.0255282 0.00163642 0)
(0.0272449 0.00168844 0)
(0.0281177 0.0016929 -1.9331e-13)
(0 0 0)
(1.54573e-06 5.93734e-08 0)
(3.67013e-06 1.45003e-07 0)
(7.19623e-06 2.95892e-07 0)
(1.3272e-05 5.70928e-07 0)
(2.35947e-05 1.06388e-06 0)
(4.06806e-05 1.9236e-06 0)
(6.81707e-05 3.37979e-06 0)
(0.000111172 5.77543e-06 0)
(0.000176621 9.60488e-06 0)
(0.000273639 1.55555e-05 0)
(0.000413843 2.45481e-05 0)
(0.000611577 3.77677e-05 0)
(0.000884006 5.66753e-05 0)
(0.00125106 8.29849e-05 0)
(0.00173519 0.000118589 0)
(0.0023609 0.000165416 0)
(0.00315413 0.000225198 0)
(0.00414141 0.000299135 0)
(0.0053488 0.000387468 0)
(0.00680062 0.00048896 0)
(0.0085177 0.000600383 0)
(0.010515 0.000716133 0)
(0.0127979 0.000828228 0)
(0.0153553 0.000927002 0)
(0.0181491 0.00100282 0)
(0.0210928 0.00104882 0)
(0.0240145 0.00106358 0)
(0.0265939 0.00105117 0)
(0.0283308 0.00101909 0)
(0.0291667 0.000980355 -3.12273e-13)
(0 0 0)
(1.50217e-06 6.3666e-08 0)
(3.56786e-06 1.55137e-07 0)
(6.99972e-06 3.15594e-07 0)
(1.292e-05 6.06875e-07 0)
(2.29921e-05 1.12693e-06 0)
(3.96895e-05 2.03037e-06 0)
(6.66026e-05 3.55447e-06 0)
(0.000108787 6.05116e-06 0)
(0.000173137 1.00239e-05 0)
(0.000268765 1.61663e-05 0)
(0.000407341 2.53974e-05 0)
(0.000603368 3.88836e-05 0)
(0.000874329 5.80361e-05 0)
(0.00124069 8.4468e-05 0)
(0.00172569 0.000119892 0)
(0.00235497 0.000165935 0)
(0.00315587 0.000223857 0)
(0.00415651 0.000294146 0)
(0.00538455 0.000375994 0)
(0.00686547 0.000466677 0)
(0.00862026 0.000560919 0)
(0.0106622 0.000650431 0)
(0.0129923 0.000723962 0)
(0.0155922 0.000768407 0)
(0.0184137 0.000771623 0)
(0.0213609 0.000727298 0)
(0.0242556 0.00064084 0)
(0.0267783 0.000532272 0)
(0.0284386 0.00043291 0)
(0.0292087 0.000343415 3.50725e-22)
(0 0 0)
(1.4634e-06 6.77089e-08 0)
(3.47532e-06 1.64542e-07 0)
(6.81828e-06 3.33514e-07 0)
(1.25879e-05 6.3882e-07 0)
(2.24108e-05 1.18152e-06 0)
(3.87107e-05 2.12024e-06 0)
(6.50145e-05 3.6969e-06 0)
(0.000106301 6.2679e-06 0)
(0.000169384 1.03392e-05 0)
(0.000263298 1.66019e-05 0)
(0.000399665 2.59616e-05 0)
(0.000592989 3.95524e-05 0)
(0.000860841 5.8723e-05 0)
(0.00122389 8.49775e-05 0)
(0.00170572 0.000119853 0)
(0.00233245 0.000164708 0)
(0.00313197 0.000220412 0)
(0.00413291 0.000286898 0)
(0.00536311 0.000362588 0)
(0.00684748 0.000443708 0)
(0.00860507 0.000523565 0)
(0.0106451 0.000591997 0)
(0.0129617 0.000635378 0)
(0.0155268 0.000637898 0)
(0.018281 0.000585116 0)
(0.02112 0.00047074 0)
(0.0238685 0.000306176 0)
(0.026227 0.000127616 0)
(0.0277427 -1.06457e-05 0)
(0.0283425 -0.000107285 2.43884e-13)
(0 0 0)
(1.43039e-06 7.16133e-08 0)
(3.39472e-06 1.73479e-07 0)
(6.65589e-06 3.50166e-07 0)
(1.22824e-05 6.67721e-07 0)
(2.18613e-05 1.22943e-06 0)
(3.77602e-05 2.1964e-06 0)
(6.34291e-05 3.81276e-06 0)
(0.000103747 6.43571e-06 0)
(0.000165403 1.05686e-05 0)
(0.000257291 1.68928e-05 0)
(0.000390876 2.62926e-05 0)
(0.000580509 3.98618e-05 0)
(0.000843619 5.88813e-05 0)
(0.00120076 8.47496e-05 0)
(0.00167543 0.000118849 0)
(0.00229363 0.000162325 0)
(0.00308309 0.000215765 0)
(0.00407206 0.000278742 0)
(0.0052875 0.000349239 0)
(0.00675261 0.000422932 0)
(0.00848337 0.000492429 0)
(0.0104839 0.000546615 0)
(0.0127405 0.000570496 0)
(0.0152148 0.000546285 0)
(0.0178357 0.000457014 0)
(0.020491 0.000294369 0)
(0.023012 7.18144e-05 0)
(0.0251359 -0.000161484 0)
(0.0264787 -0.000326432 0)
(0.0270022 -0.000378083 5.48496e-14)
(0 0 0)
(1.40435e-06 7.55087e-08 0)
(3.3288e-06 1.82252e-07 0)
(6.51762e-06 3.66141e-07 0)
(1.20121e-05 6.94677e-07 0)
(2.1358e-05 1.27265e-06 0)
(3.68612e-05 2.26238e-06 0)
(6.18827e-05 3.90828e-06 0)
(0.000101179 6.5654e-06 0)
(0.000161278 1.07303e-05 0)
(0.000250864 1.70699e-05 0)
(0.00038115 2.64413e-05 0)
(0.000566183 3.98941e-05 0)
(0.000823038 5.86412e-05 0)
(0.00117186 8.3985e-05 0)
(0.00163567 0.000117181 0)
(0.00223987 0.000159224 0)
(0.00301144 0.000210529 0)
(0.00397754 0.000270508 0)
(0.00516361 0.000337012 0)
(0.00659058 0.000405652 0)
(0.00827106 0.000469026 0)
(0.0102043 0.000515989 0)
(0.0123698 0.000531246 0)
(0.0147202 0.000495906 0)
(0.0171735 0.000390244 0)
(0.0196077 0.000200863 0)
(0.0218539 -6.47421e-05 0)
(0.0236786 -0.000356552 0)
(0.0247847 -0.000574405 0)
(0.0252504 -0.000659758 5.99798e-15)
(0 0 0)
(1.38677e-06 7.95424e-08 0)
(3.28092e-06 1.91204e-07 0)
(6.40973e-06 3.82104e-07 0)
(1.17881e-05 7.20911e-07 0)
(2.09195e-05 1.31335e-06 0)
(3.60441e-05 2.32205e-06 0)
(6.04245e-05 3.99008e-06 0)
(9.86757e-05 6.66814e-06 0)
(0.000157128 1.0843e-05 0)
(0.000244203 1.71633e-05 0)
(0.000370769 2.64558e-05 0)
(0.000550436 3.97235e-05 0)
(0.00079974 5.81137e-05 0)
(0.00113816 8.28445e-05 0)
(0.0015879 0.000115073 0)
(0.00217338 0.000155693 0)
(0.00292032 0.000205048 0)
(0.00385437 0.000262544 0)
(0.00499904 0.000326155 0)
(0.00637285 0.000391807 0)
(0.00798538 0.00045266 0)
(0.0098322 0.000498357 0)
(0.0118884 0.000514411 0)
(0.0141011 0.000482156 0)
(0.0163819 0.000380151 0)
(0.0186004 0.000189086 0)
(0.0205763 -9.56512e-05 0)
(0.0220638 -0.00043821 0)
(0.0227797 -0.00073069 0)
(0.0229686 -0.000900195 3.21896e-13)
(0 0 0)
(1.37935e-06 8.39224e-08 0)
(3.2548e-06 2.00808e-07 0)
(6.3389e-06 3.98943e-07 0)
(1.16216e-05 7.47996e-07 0)
(2.05642e-05 1.35426e-06 0)
(3.53386e-05 2.37992e-06 0)
(5.91011e-05 4.06561e-06 0)
(9.63084e-05 6.75588e-06 0)
(0.000153064 1.09254e-05 0)
(0.000237474 1.72016e-05 0)
(0.000359982 2.63783e-05 0)
(0.000533642 3.94103e-05 0)
(0.000774279 5.73817e-05 0)
(0.00110048 8.14346e-05 0)
(0.00153336 0.000112648 0)
(0.002096 0.000151854 0)
(0.00281249 0.000199389 0)
(0.00370658 0.00025476 0)
(0.0047996 0.000316225 0)
(0.00610767 0.000380274 0)
(0.00763784 0.000441015 0)
(0.00938334 0.000489498 0)
(0.0113176 0.000513093 0)
(0.0133872 0.000495168 0)
(0.0155048 0.000415698 0)
(0.0175443 0.00025442 0)
(0.0193334 1.11191e-06 0)
(0.0206477 -0.000319143 0)
(0.0212111 -0.00059243 0)
(0.0204516 -0.000921649 1.98523e-23)
(0 0 0)
(2.20945e-06 0 0)
(5.13526e-06 0 0)
(9.85473e-06 0 0)
(1.77901e-05 0 0)
(3.0942e-05 0 0)
(5.21607e-05 0 0)
(8.53984e-05 0 0)
(0.000135941 0 0)
(0.000210579 0 0)
(0.000317666 0 0)
(0.000466987 0 0)
(0.000669379 0 0)
(0.000936008 0 0)
(0.00127725 0 0)
(0.00170115 0 0)
(0.00221138 0 0)
(0.00280487 0 0)
(0.00346907 0 0)
(0.00417927 0 0)
(0.00489622 0 0)
(0.00556473 0 0)
(0.00611411 0 0)
(0.00646142 0 0)
(0.00651886 0 0)
(0.0062066 0 0)
(0.00547299 0 0)
(0.00432546 0 0)
(0.00288334 0 0)
(0.00149722 0 0)
(-1.10767e-17 0 -7.78689e-23)
(0 0 0)
(2.09425e-06 8.88105e-09 0)
(4.88801e-06 2.16532e-08 0)
(9.41553e-06 4.43565e-08 0)
(1.70532e-05 8.61688e-08 0)
(2.97528e-05 1.61883e-07 0)
(5.0306e-05 2.95418e-07 0)
(8.25987e-05 5.24536e-07 0)
(0.000131847 9.07205e-07 0)
(0.000204781 1.52996e-06 0)
(0.000309711 2.51854e-06 0)
(0.000456424 4.05112e-06 0)
(0.000655823 6.3744e-06 0)
(0.000919237 9.82289e-06 0)
(0.00125735 1.48423e-05 0)
(0.00167868 2.20185e-05 0)
(0.00218762 3.21143e-05 0)
(0.00278211 4.61193e-05 0)
(0.00345096 6.53176e-05 0)
(0.00417125 9.13812e-05 0)
(0.00490599 0.000126495 0)
(0.00560278 0.000173508 0)
(0.00619423 0.000236098 0)
(0.00660126 0.000318887 0)
(0.0067404 0.00042742 0)
(0.0065368 0.000567807 0)
(0.00594454 0.000745639 0)
(0.00497793 0.000963025 0)
(0.00376242 0.00121001 0)
(0.00263357 0.00143891 0)
(0.00176431 0.00167606 -1.22843e-13)
(0 0 0)
(1.94486e-06 1.70529e-08 0)
(4.56736e-06 4.16789e-08 0)
(8.84451e-06 8.55443e-08 0)
(1.60936e-05 1.66439e-07 0)
(2.82028e-05 3.13114e-07 0)
(4.78888e-05 5.72109e-07 0)
(7.89558e-05 1.01695e-06 0)
(0.000126541 1.76057e-06 0)
(0.000197317 2.97151e-06 0)
(0.000299585 4.89461e-06 0)
(0.000443214 7.87641e-06 0)
(0.000639328 1.23958e-05 0)
(0.000899696 1.91003e-05 0)
(0.00123574 2.88494e-05 0)
(0.00165715 4.27664e-05 0)
(0.00217003 6.23043e-05 0)
(0.00277477 8.93319e-05 0)
(0.00346357 0.00012625 0)
(0.00421801 0.000176154 0)
(0.00500696 0.000243039 0)
(0.0057854 0.000332057 0)
(0.00649493 0.000449753 0)
(0.00706694 0.000604176 0)
(0.00742967 0.000804577 0)
(0.00752053 0.00106022 0)
(0.00730503 0.00137737 0)
(0.00680404 0.00175267 0)
(0.0061313 0.00215977 0)
(0.0055459 0.00252377 0)
(0.0050728 0.0028057 -3.38497e-14)
(0 0 0)
(1.8783e-06 2.45789e-08 0)
(4.42292e-06 6.0194e-08 0)
(8.58434e-06 1.23706e-07 0)
(1.5654e-05 2.40893e-07 0)
(2.74916e-05 4.53479e-07 0)
(4.67839e-05 8.28998e-07 0)
(7.73082e-05 1.4741e-06 0)
(0.000124191 2.55243e-06 0)
(0.000194128 4.30789e-06 0)
(0.00029551 7.09398e-06 0)
(0.000438408 1.14095e-05 0)
(0.000634327 1.79407e-05 0)
(0.000895683 2.76104e-05 0)
(0.00123494 4.16342e-05 0)
(0.00166336 6.15857e-05 0)
(0.00218941 8.9476e-05 0)
(0.00281683 0.000127854 0)
(0.00354246 0.000179944 0)
(0.00435422 0.000249821 0)
(0.00522927 0.000342656 0)
(0.00613317 0.000464986 0)
(0.00702041 0.000624944 0)
(0.00783726 0.000832248 0)
(0.00852778 0.00109753 0)
(0.00904369 0.00143027 0)
(0.00935813 0.00183403 0)
(0.00948156 0.00229707 0)
(0.00947523 0.00277578 0)
(0.00946109 0.00317095 0)
(0.00936481 0.00343861 -3.83304e-14)
(0 0 0)
(1.81537e-06 3.16189e-08 0)
(4.28368e-06 7.75176e-08 0)
(8.33207e-06 1.59363e-07 0)
(1.52274e-05 3.10311e-07 0)
(2.6803e-05 5.84012e-07 0)
(4.5719e-05 1.06719e-06 0)
(7.57335e-05 1.89658e-06 0)
(0.000121975 3.28146e-06 0)
(0.000191186 5.53283e-06 0)
(0.00029189 9.09958e-06 0)
(0.000434426 1.46118e-05 0)
(0.000630788 2.29308e-05 0)
(0.000894211 3.52043e-05 0)
(0.00123845 5.29276e-05 0)
(0.00167673 7.80092e-05 0)
(0.0022204 0.000112845 0)
(0.00287726 0.000160407 0)
(0.00364985 0.000224357 0)
(0.00453367 0.000309202 0)
(0.00551584 0.000420489 0)
(0.00657442 0.000565026 0)
(0.00767886 0.000751027 0)
(0.00879216 0.000987946 0)
(0.00987483 0.00128551 0)
(0.0108906 0.0016511 0)
(0.0118125 0.00208422 0)
(0.0126236 0.00256614 0)
(0.0133078 0.00304373 0)
(0.0138335 0.00341232 0)
(0.0140837 0.00364038 -2.55018e-13)
(0 0 0)
(1.7555e-06 3.81515e-08 0)
(4.14964e-06 9.35643e-08 0)
(8.0878e-06 1.92284e-07 0)
(1.48133e-05 3.74145e-07 0)
(2.61339e-05 7.03507e-07 0)
(4.46853e-05 1.28418e-06 0)
(7.42098e-05 2.27937e-06 0)
(0.000119845 3.93803e-06 0)
(0.000188394 6.62848e-06 0)
(0.000288532 1.08795e-05 0)
(0.000430906 1.7428e-05 0)
(0.000628059 2.72723e-05 0)
(0.000894134 4.17281e-05 0)
(0.00124432 6.24835e-05 0)
(0.00169399 9.16529e-05 0)
(0.00225761 0.000131827 0)
(0.00294742 0.00018612 0)
(0.00377201 0.000258232 0)
(0.00473494 0.000352518 0)
(0.0058337 0.00047409 0)
(0.00705916 0.000628921 0)
(0.00839576 0.000823865 0)
(0.00982247 0.00106638 0)
(0.0113143 0.00136352 0)
(0.0128428 0.00171936 0)
(0.0143734 0.00212978 0)
(0.0158521 0.00257328 0)
(0.0171758 0.00299719 0)
(0.0181626 0.00330632 0)
(0.0186726 0.00349056 -3.4174e-22)
(0 0 0)
(1.69848e-06 4.41705e-08 0)
(4.02088e-06 1.08296e-07 0)
(7.85163e-06 2.22347e-07 0)
(1.44108e-05 4.32077e-07 0)
(2.54809e-05 8.11232e-07 0)
(4.36727e-05 1.4784e-06 0)
(7.27128e-05 2.61934e-06 0)
(0.000117748 4.51616e-06 0)
(0.000185641 7.58399e-06 0)
(0.000285223 1.24147e-05 0)
(0.000427453 1.98265e-05 0)
(0.000625429 3.09154e-05 0)
(0.000894216 4.71059e-05 0)
(0.00125043 7.01926e-05 0)
(0.00171162 0.00010237 0)
(0.00229535 0.00014624 0)
(0.00301818 0.000204805 0)
(0.00389457 0.000281432 0)
(0.00493573 0.000379817 0)
(0.00614882 0.000503938 0)
(0.00753632 0.000658012 0)
(0.00909576 0.000846387 0)
(0.0108194 0.00107325 0)
(0.0126928 0.00134182 0)
(0.014691 0.00165245 0)
(0.0167671 0.0019988 0)
(0.0188273 0.002361 0)
(0.0206864 0.00269518 0)
(0.0220314 0.00292593 0)
(0.0227444 0.00304792 1.76993e-13)
(0 0 0)
(1.64435e-06 4.96887e-08 0)
(3.89766e-06 1.21727e-07 0)
(7.6238e-06 2.49544e-07 0)
(1.40195e-05 4.84033e-07 0)
(2.48408e-05 9.06954e-07 0)
(4.26718e-05 1.64929e-06 0)
(7.12189e-05 2.91531e-06 0)
(0.000115631 5.01366e-06 0)
(0.000182819 8.39566e-06 0)
(0.000281754 1.36999e-05 0)
(0.000423677 2.18002e-05 0)
(0.0006222 3.38533e-05 0)
(0.000893239 5.13379e-05 0)
(0.00125475 7.60777e-05 0)
(0.00172624 0.000110237 0)
(0.00232812 0.000156283 0)
(0.00308084 0.000216893 0)
(0.004004 0.000294831 0)
(0.00511538 0.000392761 0)
(0.00643015 0.000513048 0)
(0.00796002 0.000657544 0)
(0.00971235 0.000827371 0)
(0.0116885 0.0010227 0)
(0.0138802 0.00124235 0)
(0.0162612 0.00148304 0)
(0.0187707 0.00173749 0)
(0.0212797 0.00199072 0)
(0.0235353 0.00221323 0)
(0.0251242 0.00235588 0)
(0.0259485 0.00242924 1.017e-14)
(0 0 0)
(1.59331e-06 5.47386e-08 0)
(3.78047e-06 1.33922e-07 0)
(7.40492e-06 2.73985e-07 0)
(1.36395e-05 5.30183e-07 0)
(2.4212e-05 9.90933e-07 0)
(4.16755e-05 1.79726e-06 0)
(6.97088e-05 3.168e-06 0)
(0.000113449 5.43193e-06 0)
(0.000179836 9.06644e-06 0)
(0.00027794 1.47413e-05 0)
(0.000419231 2.33635e-05 0)
(0.000617747 3.61173e-05 0)
(0.000890121 5.44899e-05 0)
(0.00125543 8.02716e-05 0)
(0.00173487 0.000115517 0)
(0.00235118 0.000162448 0)
(0.003128 0.000223295 0)
(0.00408901 0.000300055 0)
(0.005257 0.000394178 0)
(0.00665292 0.000506202 0)
(0.00829464 0.000635374 0)
(0.0101954 0.000779349 0)
(0.0123608 0.000934075 0)
(0.0147836 0.00109396 0)
(0.017433 0.00125231 0)
(0.0202346 0.00140184 0)
(0.0230325 0.00153413 0)
(0.0255282 0.00163642 0)
(0.0272449 0.00168844 0)
(0.0281176 0.00169291 -1.9331e-13)
(0 0 0)
(1.54573e-06 5.93734e-08 0)
(3.67013e-06 1.45003e-07 0)
(7.19623e-06 2.95892e-07 0)
(1.3272e-05 5.70928e-07 0)
(2.35947e-05 1.06388e-06 0)
(4.06806e-05 1.9236e-06 0)
(6.81707e-05 3.37979e-06 0)
(0.000111172 5.77543e-06 0)
(0.000176621 9.60488e-06 0)
(0.000273639 1.55555e-05 0)
(0.000413843 2.45481e-05 0)
(0.000611577 3.77677e-05 0)
(0.000884006 5.66753e-05 0)
(0.00125106 8.29849e-05 0)
(0.00173519 0.000118589 0)
(0.0023609 0.000165416 0)
(0.00315413 0.000225198 0)
(0.00414141 0.000299135 0)
(0.0053488 0.000387468 0)
(0.00680062 0.00048896 0)
(0.0085177 0.000600383 0)
(0.010515 0.000716133 0)
(0.0127979 0.000828228 0)
(0.0153553 0.000927002 0)
(0.0181491 0.00100282 0)
(0.0210928 0.00104882 0)
(0.0240145 0.00106358 0)
(0.0265939 0.00105117 0)
(0.0283308 0.00101909 0)
(0.0291667 0.000980359 -3.12273e-13)
(0 0 0)
(1.50217e-06 6.3666e-08 0)
(3.56786e-06 1.55137e-07 0)
(6.99972e-06 3.15594e-07 0)
(1.292e-05 6.06875e-07 0)
(2.29921e-05 1.12693e-06 0)
(3.96895e-05 2.03037e-06 0)
(6.66026e-05 3.55447e-06 0)
(0.000108787 6.05116e-06 0)
(0.000173137 1.00239e-05 0)
(0.000268765 1.61663e-05 0)
(0.000407341 2.53974e-05 0)
(0.000603368 3.88836e-05 0)
(0.000874329 5.80361e-05 0)
(0.00124069 8.4468e-05 0)
(0.00172569 0.000119892 0)
(0.00235497 0.000165935 0)
(0.00315587 0.000223857 0)
(0.00415651 0.000294146 0)
(0.00538455 0.000375994 0)
(0.00686547 0.000466677 0)
(0.00862026 0.000560919 0)
(0.0106622 0.000650431 0)
(0.0129923 0.000723962 0)
(0.0155922 0.000768407 0)
(0.0184137 0.000771623 0)
(0.0213609 0.000727298 0)
(0.0242556 0.00064084 0)
(0.0267783 0.000532272 0)
(0.0284386 0.00043291 0)
(0.0292087 0.000343417 3.26622e-22)
(0 0 0)
(1.4634e-06 6.77089e-08 0)
(3.47532e-06 1.64542e-07 0)
(6.81828e-06 3.33514e-07 0)
(1.25879e-05 6.3882e-07 0)
(2.24108e-05 1.18152e-06 0)
(3.87107e-05 2.12024e-06 0)
(6.50145e-05 3.6969e-06 0)
(0.000106301 6.2679e-06 0)
(0.000169384 1.03392e-05 0)
(0.000263298 1.66019e-05 0)
(0.000399665 2.59616e-05 0)
(0.000592989 3.95524e-05 0)
(0.000860841 5.8723e-05 0)
(0.00122389 8.49775e-05 0)
(0.00170572 0.000119853 0)
(0.00233245 0.000164708 0)
(0.00313197 0.000220412 0)
(0.00413291 0.000286898 0)
(0.00536311 0.000362588 0)
(0.00684748 0.000443708 0)
(0.00860507 0.000523565 0)
(0.0106451 0.000591997 0)
(0.0129617 0.000635378 0)
(0.0155268 0.000637898 0)
(0.018281 0.000585116 0)
(0.02112 0.00047074 0)
(0.0238685 0.000306176 0)
(0.026227 0.000127616 0)
(0.0277427 -1.06457e-05 0)
(0.0283425 -0.000107284 2.43884e-13)
(0 0 0)
(1.43039e-06 7.16133e-08 0)
(3.39472e-06 1.73479e-07 0)
(6.65589e-06 3.50166e-07 0)
(1.22824e-05 6.67721e-07 0)
(2.18613e-05 1.22943e-06 0)
(3.77602e-05 2.1964e-06 0)
(6.34291e-05 3.81276e-06 0)
(0.000103747 6.43571e-06 0)
(0.000165403 1.05686e-05 0)
(0.000257291 1.68928e-05 0)
(0.000390876 2.62926e-05 0)
(0.000580509 3.98618e-05 0)
(0.000843619 5.88813e-05 0)
(0.00120076 8.47496e-05 0)
(0.00167543 0.000118849 0)
(0.00229363 0.000162325 0)
(0.00308309 0.000215765 0)
(0.00407206 0.000278742 0)
(0.0052875 0.000349239 0)
(0.00675261 0.000422932 0)
(0.00848337 0.000492429 0)
(0.0104839 0.000546615 0)
(0.0127405 0.000570496 0)
(0.0152148 0.000546285 0)
(0.0178357 0.000457014 0)
(0.020491 0.000294369 0)
(0.023012 7.18144e-05 0)
(0.0251359 -0.000161484 0)
(0.0264787 -0.000326432 0)
(0.0270022 -0.000378084 5.48496e-14)
(0 0 0)
(1.40435e-06 7.55087e-08 0)
(3.3288e-06 1.82252e-07 0)
(6.51762e-06 3.66141e-07 0)
(1.20121e-05 6.94677e-07 0)
(2.1358e-05 1.27265e-06 0)
(3.68612e-05 2.26238e-06 0)
(6.18827e-05 3.90828e-06 0)
(0.000101179 6.5654e-06 0)
(0.000161278 1.07303e-05 0)
(0.000250864 1.70699e-05 0)
(0.00038115 2.64413e-05 0)
(0.000566183 3.98941e-05 0)
(0.000823038 5.86412e-05 0)
(0.00117186 8.3985e-05 0)
(0.00163567 0.000117181 0)
(0.00223987 0.000159224 0)
(0.00301144 0.000210529 0)
(0.00397754 0.000270508 0)
(0.00516361 0.000337012 0)
(0.00659058 0.000405652 0)
(0.00827106 0.000469026 0)
(0.0102043 0.000515989 0)
(0.0123698 0.000531246 0)
(0.0147202 0.000495906 0)
(0.0171735 0.000390244 0)
(0.0196077 0.000200863 0)
(0.0218539 -6.47421e-05 0)
(0.0236786 -0.000356552 0)
(0.0247847 -0.000574405 0)
(0.0252504 -0.000659756 5.99798e-15)
(0 0 0)
(1.38677e-06 7.95424e-08 0)
(3.28092e-06 1.91204e-07 0)
(6.40973e-06 3.82104e-07 0)
(1.17881e-05 7.20911e-07 0)
(2.09195e-05 1.31335e-06 0)
(3.60441e-05 2.32205e-06 0)
(6.04245e-05 3.99008e-06 0)
(9.86757e-05 6.66814e-06 0)
(0.000157128 1.0843e-05 0)
(0.000244203 1.71633e-05 0)
(0.000370769 2.64558e-05 0)
(0.000550436 3.97235e-05 0)
(0.00079974 5.81137e-05 0)
(0.00113816 8.28445e-05 0)
(0.0015879 0.000115073 0)
(0.00217338 0.000155693 0)
(0.00292032 0.000205048 0)
(0.00385437 0.000262544 0)
(0.00499904 0.000326155 0)
(0.00637285 0.000391807 0)
(0.00798538 0.00045266 0)
(0.0098322 0.000498357 0)
(0.0118884 0.000514411 0)
(0.0141011 0.000482156 0)
(0.0163819 0.000380151 0)
(0.0186004 0.000189086 0)
(0.0205763 -9.56512e-05 0)
(0.0220638 -0.00043821 0)
(0.0227797 -0.00073069 0)
(0.0229686 -0.000900193 3.21896e-13)
(0 0 0)
(1.37935e-06 8.39224e-08 0)
(3.2548e-06 2.00808e-07 0)
(6.3389e-06 3.98943e-07 0)
(1.16216e-05 7.47996e-07 0)
(2.05642e-05 1.35426e-06 0)
(3.53386e-05 2.37992e-06 0)
(5.91011e-05 4.06561e-06 0)
(9.63084e-05 6.75588e-06 0)
(0.000153064 1.09254e-05 0)
(0.000237474 1.72016e-05 0)
(0.000359982 2.63783e-05 0)
(0.000533642 3.94103e-05 0)
(0.000774279 5.73817e-05 0)
(0.00110048 8.14346e-05 0)
(0.00153336 0.000112648 0)
(0.002096 0.000151854 0)
(0.00281249 0.000199389 0)
(0.00370658 0.00025476 0)
(0.0047996 0.000316225 0)
(0.00610767 0.000380274 0)
(0.00763784 0.000441015 0)
(0.00938334 0.000489498 0)
(0.0113176 0.000513093 0)
(0.0133872 0.000495168 0)
(0.0155048 0.000415698 0)
(0.0175443 0.00025442 0)
(0.0193334 1.11191e-06 0)
(0.0206477 -0.000319143 0)
(0.0212111 -0.00059243 0)
(0.0204516 -0.000921648 -7.55856e-24)
(-2.08167e-17 0 5.79026e-24)
(0.00162993 0 0)
(0.00330087 0 0)
(0.00498179 0 0)
(0.00624978 0 0)
(0.00699705 0 0)
(0.00725052 0 0)
(0.00709671 0 0)
(0.00664126 0 0)
(0.00598734 0 0)
(0.00522528 0 0)
(0.00442833 0 0)
(0.00365176 0 0)
(0.00293394 0 0)
(0.00229834 0 0)
(0.00175615 0 0)
(0.00130901 0 0)
(0.000951757 0 0)
(0.000674843 0 0)
(0.00046646 0 0)
(0.000314165 0 0)
(0.000206057 0 0)
(0.000131531 0 0)
(8.16517e-05 0 0)
(4.92532e-05 0 0)
(2.88364e-05 0 0)
(1.63499e-05 0 0)
(8.91748e-06 0 0)
(4.55504e-06 0 0)
(1.90285e-06 0 0)
(0 0 0)
(0.00175591 -0.00159303 -2.8279e-13)
(0.00278278 -0.00135684 0)
(0.00422362 -0.0011369 0)
(0.00567548 -0.000878675 0)
(0.00675243 -0.000645553 0)
(0.00734944 -0.000455797 0)
(0.00748856 -0.000309506 0)
(0.00725011 -0.000201263 0)
(0.00673372 -0.000124232 0)
(0.00603731 -7.16154e-05 0)
(0.00524675 -3.72908e-05 0)
(0.00443165 -1.61006e-05 0)
(0.00364441 -3.93043e-06 0)
(0.00292112 2.34424e-06 0)
(0.00228354 4.98594e-06 0)
(0.00174154 5.55504e-06 0)
(0.00129584 5.07162e-06 0)
(0.00094061 4.16165e-06 0)
(0.000665864 3.17854e-06 0)
(0.000459526 2.29788e-06 0)
(0.000309009 1.58686e-06 0)
(0.000202357 1.05243e-06 0)
(0.000128965 6.72507e-07 0)
(7.99301e-05 4.14866e-07 0)
(4.81363e-05 2.47343e-07 0)
(2.81363e-05 1.42563e-07 0)
(1.59272e-05 7.93524e-08 0)
(8.67462e-06 4.2413e-08 0)
(4.42805e-06 2.12175e-08 0)
(1.85291e-06 8.68969e-09 0)
(0 0 0)
(0.00504099 -0.00259501 -1.83845e-14)
(0.0057405 -0.00232521 0)
(0.00670235 -0.00197845 0)
(0.00761103 -0.00155769 0)
(0.00820004 -0.00115983 0)
(0.00839845 -0.000825444 0)
(0.0082276 -0.000562559 0)
(0.00775593 -0.000365794 0)
(0.00706877 -0.000224857 0)
(0.00625053 -0.000128301 0)
(0.00537542 -6.53143e-05 0)
(0.00450347 -2.65668e-05 0)
(0.00367945 -4.51177e-06 0)
(0.00293356 6.63062e-06 0)
(0.00228308 1.10678e-05 0)
(0.00173458 1.17095e-05 0)
(0.00128639 1.04594e-05 0)
(0.000930988 8.48272e-06 0)
(0.000657289 6.43287e-06 0)
(0.00045249 4.62882e-06 0)
(0.000303576 3.18617e-06 0)
(0.000198365 2.10814e-06 0)
(0.000126155 1.34475e-06 0)
(7.80304e-05 8.28451e-07 0)
(4.68995e-05 4.93403e-07 0)
(2.73608e-05 2.84152e-07 0)
(1.54603e-05 1.58066e-07 0)
(8.40776e-06 8.44569e-08 0)
(4.28973e-06 4.22642e-08 0)
(1.79895e-06 1.73463e-08 0)
(0 0 0)
(0.00934988 -0.00307188 -4.71546e-15)
(0.00970245 -0.00282413 0)
(0.0101522 -0.00244333 0)
(0.0104012 -0.00195483 0)
(0.0103493 -0.00147274 0)
(0.00999949 -0.0010554 0)
(0.00938946 -0.000720805 0)
(0.0085799 -0.000467236 0)
(0.00764042 -0.00028431 0)
(0.00663835 -0.000158643 0)
(0.00563238 -7.68157e-05 0)
(0.00466935 -2.68762e-05 0)
(0.00378344 1.02832e-06 0)
(0.00299656 1.45358e-05 0)
(0.0023197 1.92497e-05 0)
(0.00175479 1.90617e-05 0)
(0.00129678 1.65195e-05 0)
(0.000935785 1.3176e-05 0)
(0.000659096 9.89098e-06 0)
(0.00045284 7.0705e-06 0)
(0.000303318 4.84545e-06 0)
(0.000197934 3.19636e-06 0)
(0.000125746 2.03469e-06 0)
(7.77112e-05 1.25174e-06 0)
(4.6677e-05 7.44827e-07 0)
(2.72181e-05 4.28725e-07 0)
(1.53752e-05 2.38444e-07 0)
(8.361e-06 1.27428e-07 0)
(4.26717e-06 6.38224e-08 0)
(1.79058e-06 2.62541e-08 0)
(0 0 0)
(0.0140611 -0.00313989 2.31821e-13)
(0.0140924 -0.00291442 0)
(0.014024 -0.0025462 0)
(0.0135906 -0.00205883 0)
(0.0128511 -0.00156295 0)
(0.0118938 -0.00112364 0)
(0.0107842 -0.000765599 0)