/*--------------------------------*- C++ -*----------------------------------*\
| =========                 |                                                 |
| \\      /  F ield         | OpenFOAM: The Open Source CFD Toolbox           |
|  \\    /   O peration     | Version:  5.x                                   |
|   \\  /    A nd           | Web:      www.OpenFOAM.org                      |
|    \\/     M anipulation  |                                                 |
\*---------------------------------------------------------------------------*/
FoamFile
{
    version     2.0;
    format      ascii;
    class       volVectorField;
    location    "0.2";
    object      Stress;
}
// * * * * * * * * * * * * * * * * * * * * * * * * * * * * * * * * * * * * * //

dimensions      [1 -1 -2 0 0 0 0];

internalField   uniform (0 0 0);

boundaryField
{
    inlet
    {
        type            calculated;
        value           uniform (0 0 0);
    }
    outlet
    {
        type            calculated;
        value           uniform (0 0 0);
    }
    flap
    {
        type            calculated;
        value           nonuniform List<vector> 
33
(
(110.689 -2.85554 3.95863e-20)
(110.657 -5.37805 -8.33476e-17)
(110.215 -6.98883 -8.26908e-17)
(109.357 -7.6587 -8.22418e-17)
(108.149 -7.38433 1.41332e-20)
(106.598 -6.45953 8.07299e-17)
(104.696 -4.96644 3.57089e-17)
(102.315 -3.2351 -3.49643e-17)
(99.3225 -1.42826 4.96342e-21)
(95.3924 0.114055 8.02387e-17)
(90.1613 1.38132 -7.28786e-17)
(82.8767 1.90802 -2.74518e-20)
(72.2625 2.18305 6.88573e-17)
(55.2705 2.23175 -1.00415e-16)
(21.8152 1.22855 7.555e-17)
(-6.06024 174.126 -1.36206e-21)
(-5.41759 154.056 -2.60405e-17)
(-4.56114 124.14 -2.08802e-17)
(93.4594 -2.517 7.858e-17)
(93.3619 -4.6488 -7.95962e-17)
(93.6622 -6.05644 -1.44158e-16)
(94.5523 -6.62551 2.26483e-16)
(96.1597 -6.52424 1.6385e-16)
(98.5672 -5.85799 8.22943e-17)
(101.777 -4.69593 -3.40414e-17)
(105.546 -3.23 3.51521e-17)
(109.485 -1.51096 1.01264e-16)
(112.913 0.144696 5.11248e-21)
(115.251 1.70748 5.21694e-21)
(115.931 2.52864 -1.94857e-17)
(114.776 3.17595 -8.19908e-17)
(111.735 4.00791 -1.55075e-20)
(106.605 4.10078 1.1638e-16)
)
;
    }
    upperWall
    {
        type            calculated;
        value           uniform (0 0 0);
    }
    lowerWall
    {
        type            calculated;
        value           uniform (0 0 0);
    }
    frontAndBack
    {
        type            empty;
    }
}


// ************************************************************************* //
