/*--------------------------------*- C++ -*----------------------------------*\
| =========                 |                                                 |
| \\      /  F ield         | OpenFOAM: The Open Source CFD Toolbox           |
|  \\    /   O peration     | Version:  5.x                                   |
|   \\  /    A nd           | Web:      www.OpenFOAM.org                      |
|    \\/     M anipulation  |                                                 |
\*---------------------------------------------------------------------------*/
FoamFile
{
    version     2.0;
    format      ascii;
    class       volVectorField;
    location    "0.2";
    object      U;
}
// * * * * * * * * * * * * * * * * * * * * * * * * * * * * * * * * * * * * * //

dimensions      [0 1 -1 0 0 0 0];

internalField   nonuniform List<vector> 
2790
(
(9.93766 0.0200119 1.15586e-22)
(9.87515 0.0284183 -1.17763e-22)
(9.78162 0.0341816 -1.20254e-22)
(9.66252 0.0401039 1.2265e-22)
(9.52507 0.0462494 2.1536e-21)
(9.37109 0.0525412 1.96355e-21)
(9.19986 0.0590663 0)
(9.01046 0.0659251 -1.13955e-21)
(8.80229 0.0731783 3.52117e-21)
(8.57483 0.0808595 -2.46263e-21)
(8.32757 0.0889936 0)
(8.06004 0.0976049 0)
(7.7718 0.106722 1.16304e-20)
(7.46253 0.116379 -1.19941e-20)
(7.13196 0.126617 0)
(6.77993 0.137475 1.3683e-20)
(6.40642 0.148987 -1.45824e-20)
(6.01158 0.161162 6.32086e-20)
(5.59582 0.173977 -9.92554e-20)
(5.15989 0.187356 0)
(4.70506 0.201163 1.55899e-19)
(4.23319 0.215189 -2.47001e-19)
(3.74683 0.229165 3.61944e-19)
(3.24931 0.242787 -3.83751e-19)
(2.74464 0.255787 0)
(2.23741 0.268039 0)
(1.73089 0.280116 -2.47075e-19)
(1.2479 0.288922 -1.07658e-18)
(0.66436 0.310464 1.44926e-18)
(0.427663 0.332911 1.2829e-18)
(9.99302 0.0391191 -7.19525e-24)
(9.98243 0.0589688 1.24049e-22)
(9.94421 0.0739503 7.47139e-21)
(9.87961 0.0896926 3.87992e-21)
(9.79437 0.10644 -9.91514e-22)
(9.69024 0.12402 3.09355e-21)
(9.56648 0.142638 -1.06143e-20)
(9.42198 0.162558 4.35778e-21)
(9.25579 0.183953 6.93911e-21)
(9.06705 0.206917 -2.29082e-21)
(8.85487 0.231503 0)
(8.61837 0.257739 2.11128e-20)
(8.35675 0.285633 -2.16571e-20)
(8.06933 0.315183 0)
(7.75554 0.346372 -7.38361e-20)
(7.41497 0.379156 9.05111e-20)
(7.04737 0.413447 -1.30538e-20)
(6.65272 0.449078 1.18453e-19)
(6.23126 0.485773 -9.18586e-20)
(5.78361 0.523108 0)
(5.31082 0.560481 2.89124e-19)
(4.81451 0.597098 -2.26516e-19)
(4.29693 0.631989 1.64727e-19)
(3.76099 0.664069 1.7772e-19)
(3.21023 0.692277 -3.8434e-19)
(2.6487 0.715786 0)
(2.07799 0.734771 -1.14228e-18)
(1.52245 0.746833 1.96187e-18)
(0.863324 0.768956 -5.09623e-18)
(0.505017 0.779444 4.71986e-18)
(9.9901 0.0405086 0)
(9.9765 0.0696855 4.65741e-22)
(9.94014 0.0948906 -1.56055e-20)
(9.87999 0.121099 -3.86761e-21)
(9.80047 0.149017 -3.98461e-21)
(9.7034 0.178636 -2.6725e-23)
(9.58826 0.210274 -4.1837e-21)
(9.454 0.244335 -8.67556e-21)
(9.29964 0.281123 0)
(9.12421 0.32083 -4.6935e-21)
(8.92669 0.363572 -1.978e-20)
(8.70602 0.409411 2.02128e-20)
(8.46114 0.458377 0)
(8.1911 0.510471 2.24498e-20)
(7.89502 0.565669 2.37572e-20)
(7.57212 0.623906 -7.65388e-20)
(7.22177 0.685049 7.80042e-20)
(6.84347 0.748848 0)
(6.43694 0.814887 0)
(6.00216 0.882517 0)
(5.53947 0.950807 5.49038e-19)
(5.04964 1.01851 -4.28979e-19)
(4.53399 1.08407 -1.10271e-18)
(3.99445 1.14568 1.15571e-18)
(3.43357 1.20148 3.60606e-19)
(2.85475 1.24981 0)
(2.25822 1.29031 -8.40717e-19)
(1.67154 1.32005 0)
(0.981842 1.35575 4.96534e-19)
(0.556709 1.37189 -5.73725e-21)
(9.9885 0.0457094 -4.57979e-22)
(9.97268 0.0855032 4.63898e-22)
(9.93608 0.121952 9.43284e-21)
(9.87707 0.15875 -1.91653e-21)
(9.79916 0.197252 7.85812e-21)
(9.7041 0.237913 0)
(9.59159 0.281262 -5.34397e-23)
(9.4607 0.32789 2.58277e-20)
(9.31056 0.378284 -8.82945e-21)
(9.1403 0.432797 0)
(8.94896 0.491674 0)
(8.73555 0.555082 0)
(8.49906 0.623132 -4.25276e-20)
(8.2385 0.69589 1.10592e-19)
(7.95292 0.773386 -9.13053e-20)
(7.64142 0.855597 -2.44044e-20)
(7.30316 0.942416 5.10814e-20)
(6.93736 1.0336 0)
(6.54333 1.12868 0)
(6.12054 1.22692 4.9334e-19)
(5.66864 1.3272 -5.11555e-19)
(5.18763 1.42796 -1.38429e-19)
(4.67791 1.52718 -2.82662e-21)
(4.14043 1.62245 0)
(3.57685 1.71107 -3.36015e-19)
(2.99013 1.79035 -3.61522e-19)
(2.37952 1.85894 3.93604e-19)
(1.7765 1.91236 0)
(1.07391 1.9649 7.83109e-18)
(0.603131 1.98695 -1.00342e-17)
(9.98775 0.0523404 -1.45746e-20)
(9.97071 0.101149 -1.47396e-20)
(9.93393 0.147354 0)
(9.87595 0.193764 -1.5249e-20)
(9.79969 0.242132 -7.82845e-21)
(9.7067 0.293324 0)
(9.59673 0.348051 0)
(9.46894 0.407028 0)
(9.3225 0.470865 0)
(9.15659 0.540024 1.86672e-20)
(8.97031 0.61484 -3.74826e-20)
(8.76273 0.695552 3.9886e-20)
(8.53289 0.782332 -1.44404e-19)
(8.27983 0.875314 1.93454e-19)
(8.00259 0.974594 -4.41571e-20)
(7.70021 1.08023 1.91533e-19)
(7.37173 1.19218 -2.46155e-19)
(7.01616 1.31028 5.20145e-20)
(6.6325 1.43414 -3.3762e-19)
(6.21978 1.56301 4.61025e-19)
(5.77709 1.69573 1.22682e-19)
(5.30372 1.83054 0)
(4.79921 1.96508 -2.8022e-19)
(4.26366 2.09631 0)
(3.69788 2.22061 2.87734e-18)
(3.10458 2.33387 -2.01898e-18)
(2.48218 2.43299 0)
(1.86564 2.51103 0)
(1.1542 2.57779 -4.28894e-19)
(0.646011 2.59665 4.72816e-19)
(9.98742 0.0596099 1.4566e-20)
(9.96988 0.116829 1.38017e-20)
(9.93333 0.172313 2.79807e-21)
(9.87662 0.228252 1.3313e-20)
(9.80236 0.286465 0)
(9.7119 0.348078 0)
(9.60498 0.413972 -1.62703e-20)
(9.48082 0.484981 1.675e-20)
(9.33863 0.561837 0)
(9.17763 0.645118 1.79987e-20)
(8.99697 0.735261 -1.85225e-20)
(8.79575 0.832592 0)
(8.57305 0.937372 2.01919e-20)
(8.3279 1.04982 -2.1062e-20)
(8.05934 1.17013 -4.40169e-20)
(7.76634 1.29848 -4.55438e-20)
(7.44781 1.43495 4.77048e-20)
(7.10255 1.57953 -1.00759e-19)
(6.72928 1.73195 -1.06656e-19)
(6.32657 1.8916 0)
(5.89296 2.05734 8.33694e-19)
(5.42697 2.22738 -1.98832e-18)
(4.92732 2.39908 7.80608e-19)
(4.39312 2.56878 2.76433e-19)
(3.82423 2.7318 0)
(3.22294 2.88225 2.23305e-18)
(2.5867 3.01452 -2.69792e-18)
(1.95275 3.11836 0)
(1.2276 3.19757 0)
(0.683605 3.20353 4.31945e-19)
(9.98733 0.0671256 0)
(9.96979 0.132435 0)
(9.93388 0.196717 0)
(9.87871 0.261809 3.77977e-21)
(9.8068 0.3295 -3.82677e-21)
(9.71931 0.401117 0)
(9.61597 0.477724 1.61786e-20)
(9.49607 0.560294 -1.66376e-20)
(9.35886 0.649678 3.44872e-20)
(9.2036 0.746565 -5.25435e-20)
(9.02948 0.851485 1.83267e-20)
(8.83564 0.964854 0)
(8.62116 1.08702 0)
(8.3851 1.21829 -1.02949e-19)
(8.12646 1.35899 1.26355e-19)
(7.84415 1.50942 6.03629e-22)
(7.53694 1.66987 1.86941e-19)
(7.20343 1.84052 -4.87075e-19)
(6.84199 2.02133 4.01162e-19)
(6.45077 2.21193 -4.30551e-19)
(6.02766 2.41139 4.41814e-19)
(5.57038 2.61799 0)
(5.0766 2.82896 1.2752e-19)
(4.54424 3.04017 -1.34782e-19)
(3.97179 3.24581 2.73296e-19)
(3.3606 3.43799 0)
(2.70666 3.60797 -1.5493e-19)
(2.04774 3.74153 0)
(1.29745 3.83539 0)
(0.714118 3.82249 -2.96755e-18)
(9.98739 0.0746575 -2.9116e-20)
(9.97021 0.147789 -2.84787e-20)
(9.93529 0.220416 -1.84116e-21)
(9.88198 0.294239 1.86184e-21)
(9.81274 0.371019 0)
(9.72865 0.452229 -7.82545e-21)
(9.62943 0.539107 7.92027e-21)
(9.51441 0.632757 0)
(9.38291 0.734141 0)
(9.23422 0.84405 1.74079e-20)
(9.06759 0.963106 0)
(8.8822 1.09181 7.47687e-20)
(8.67718 1.23061 -1.53286e-19)
(8.45159 1.37993 9.85856e-20)
(8.20442 1.54022 -4.15197e-20)
(7.93452 1.71198 4.31856e-20)
(7.64055 1.89571 -2.25501e-19)
(7.3209 2.09188 -1.93126e-19)
(6.97363 2.3008 -8.69736e-21)
(6.59644 2.52244 4.00254e-19)
(6.18654 2.75625 0)
(5.74074 3.00082 1.09159e-19)
(5.25546 3.25352 1.17268e-19)
(4.72705 3.50994 -1.1055e-18)
(4.15203 3.76339 6.31218e-19)
(3.52983 4.00401 1.09184e-18)
(2.85413 4.21952 -9.99472e-19)
(2.1611 4.391 0)
(1.37013 4.50707 0)
(0.738972 4.47665 2.71739e-18)
(9.98754 0.0820588 6.20579e-22)
(9.97098 0.16273 2.84447e-20)
(9.93737 0.243275 -1.82624e-21)
(9.88622 0.325386 5.55866e-21)
(9.81999 0.410823 -3.75329e-21)
(9.73971 0.501174 0)
(9.6451 0.597821 0)
(9.53555 0.701996 0)
(9.41043 0.814769 0)
(9.26912 0.937023 3.43279e-20)
(9.1109 1.06947 -7.01088e-20)
(8.93504 1.21271 1.26747e-19)
(8.74069 1.36727 -7.39118e-20)
(8.52699 1.53372 9.71139e-20)
(8.29291 1.71265 -7.9032e-20)
(8.03729 1.90478 0)
(7.75872 2.11089 2.15791e-19)
(7.45544 2.3318 -1.76986e-19)
(7.12525 2.56825 -3.73229e-19)
(6.7654 2.82075 7.67325e-19)
(6.37248 3.08932 -3.94879e-19)
(5.9423 3.37316 -1.05105e-19)
(5.46988 3.67016 0)
(4.94958 3.97615 0)
(4.37521 4.28408 -8.31066e-19)
(3.74299 4.58259 1.71945e-20)
(3.04276 4.85583 1.04305e-18)
(2.30635 5.07949 0)
(1.4554 5.23249 -3.70053e-20)
(0.761464 5.19333 1.64536e-19)
(9.98777 0.0892287 2.84571e-20)
(9.97203 0.177122 0)
(9.94 0.265161 -1.81035e-21)
(9.89128 0.355098 3.47065e-20)
(9.82837 0.448719 -1.85598e-20)
(9.75228 0.547705 -1.5127e-20)
(9.66274 0.653566 1.56117e-20)
(9.55921 0.767651 2.09933e-22)
(9.44112 0.891128 -3.23179e-20)
(9.30791 1.02497 -1.65833e-20)
(9.15899 1.16998 -5.16157e-20)
(8.99365 1.32683 3.47165e-20)
(8.81116 1.49615 -1.80123e-20)
(8.61071 1.67864 -1.88593e-20)
(8.39134 1.87506 1.91167e-20)
(8.15191 2.08637 1.9711e-20)
(7.89101 2.31367 -2.07697e-19)
(7.6068 2.55817 8.33816e-20)
(7.29693 2.82118 0)
(6.95834 3.10386 4.46618e-20)
(6.58705 3.40709 0)
(6.17797 3.73104 4.14278e-19)
(5.72463 4.07467 -3.73125e-19)
(5.21914 4.43483 -6.34842e-21)
(4.65186 4.8051 0)
(4.01427 5.17377 -4.80776e-19)
(3.29014 5.52231 4.69627e-19)
(2.50311 5.82055 -6.08918e-20)
(1.57143 6.03541 3.4483e-20)
(0.791132 6.00718 -7.11786e-21)
(9.98804 0.0960933 2.80469e-20)
(9.97328 0.190852 -2.73578e-20)
(9.94306 0.28595 2.76293e-20)
(9.89705 0.383229 3.4091e-21)
(9.83775 0.484525 4.04709e-20)
(9.76619 0.5916 1.50646e-20)
(9.68214 0.706071 0)
(9.58511 0.829395 0)
(9.47462 0.96283 1.58454e-20)
(9.35021 1.10743 4.93925e-20)
(9.21136 1.26406 -1.63927e-20)
(9.05748 1.43349 -3.43719e-20)
(8.88795 1.61644 1.06514e-19)
(8.70204 1.81372 -7.19067e-20)
(8.49892 2.02628 -1.88141e-20)
(8.27754 2.25531 -3.83006e-20)
(8.03657 2.50225 0)
(7.77421 2.76877 -1.02367e-19)
(7.48812 3.05679 1.65081e-19)
(7.17507 3.36831 1.49869e-19)
(6.83079 3.70528 -3.61731e-19)
(6.44948 4.06925 1.55984e-19)
(6.02342 4.46093 -2.35678e-20)
(5.54245 4.87926 2.91709e-20)
(4.99308 5.32003 -9.79078e-20)
(4.36055 5.77335 5.15321e-20)
(3.61956 6.22046 -4.116e-21)
(2.7798 6.62666 3.87098e-19)
(1.74526 6.94445 -2.34706e-19)
(0.842737 6.96553 -7.78242e-19)
(9.98836 0.102596 -2.80313e-20)
(9.9747 0.203826 5.5762e-20)
(9.94649 0.305529 -2.80302e-20)
(9.90341 0.40965 -3.06261e-20)
(9.84798 0.518081 -3.10941e-20)
(9.78126 0.632659 -3.74979e-21)
(9.70307 0.755096 7.49903e-21)
(9.61298 0.886939 -1.8411e-22)
(9.51061 1.02953 -1.57608e-20)
(9.3956 1.18398 2.1589e-22)
(9.26752 1.35123 0)
(9.12594 1.5321 -1.68794e-20)
(8.97033 1.7274 1.6736e-20)
(8.80015 1.93806 0)
(8.61469 2.16518 0)
(8.41309 2.41019 1.10995e-19)
(8.19419 2.67486 7.70449e-20)
(7.95641 2.96133 -1.7257e-19)
(7.69753 3.27217 0)
(7.41451 3.6103 1.41239e-19)
(7.10306 3.97892 -1.52532e-19)
(6.75718 4.38137 2.03659e-20)
(6.36842 4.82077 -1.05586e-19)
(5.92495 5.29936 6.37272e-20)
(5.40975 5.81729 1.71618e-19)
(4.80115 6.37 -4.28474e-20)
(4.06176 6.94369 -5.43539e-19)
(3.17922 7.50499 3.75518e-19)
(2.02537 7.99331 7.99803e-19)
(0.947234 8.13169 -8.07088e-19)
(9.98871 0.108694 -2.75685e-20)
(9.97626 0.215968 -5.56827e-20)
(9.95021 0.323803 8.78878e-22)
(9.91026 0.434242 -8.85644e-22)
(9.85893 0.549243 -2.86253e-20)
(9.79732 0.670708 0)
(9.72531 0.800428 -7.45617e-21)
(9.64254 0.940026 7.50775e-21)
(9.54872 1.0909 1.8225e-22)
(9.44361 1.25424 3.13382e-20)
(9.32692 1.43101 0)
(9.19834 1.6221 0)
(9.05751 1.82837 0)
(8.90406 2.05083 0)
(8.73751 2.29074 0)
(8.55723 2.54972 -9.16959e-21)
(8.36234 2.82983 0)
(8.1516 3.13367 4.50442e-21)
(7.9232 3.46441 7.4739e-20)
(7.67453 3.8259 -1.5079e-19)
(7.40181 4.22268 7.60274e-20)
(7.09948 4.66003 1.87802e-20)
(6.75938 5.14402 -5.62772e-20)
(6.36933 5.6813 -7.711e-20)
(5.91054 6.27867 -7.66337e-20)
(5.35588 6.94151 0)
(4.65515 7.66992 8.84101e-21)
(3.76498 8.44743 7.05817e-20)
(2.4913 9.22031 0)
(1.16226 9.62818 8.1264e-19)
(9.98909 0.114352 5.4868e-20)
(9.97792 0.227213 2.76957e-20)
(9.95418 0.340686 0)
(9.91751 0.456907 -4.39568e-22)
(9.87048 0.577892 3.07688e-20)
(9.8142 0.705604 -3.04197e-20)
(9.74863 0.841896 7.33584e-21)
(9.67348 0.988453 -7.38452e-21)
(9.58858 1.14673 0)
(9.4938 1.31794 -1.56558e-20)
(9.38898 1.50309 1.55108e-20)
(9.27397 1.70308 -3.19328e-20)
(9.14861 1.91883 -3.84321e-22)
(9.01272 2.1514 6.56787e-20)
(8.86608 2.40215 -4.14259e-20)
(8.70838 2.67284 5.95273e-20)
(8.53911 2.96577 -6.62681e-20)
(8.3575 3.28388 -4.41837e-21)
(8.16238 3.63089 -4.30384e-21)
(7.95191 4.01144 -3.53545e-20)
(7.72331 4.43126 1.77099e-20)
(7.47234 4.89752 -1.66637e-20)
(7.19244 5.41926 4.31008e-22)
(6.87335 6.00801 1.3599e-19)
(6.4981 6.67869 2.03325e-19)
(6.03969 7.45089 -7.13158e-20)
(5.44224 8.34996 5.50172e-19)
(4.63284 9.40583 -5.49811e-19)
(3.30171 10.6474 0)
(1.62766 11.7697 7.80792e-19)
(9.98949 0.119543 -2.815e-20)
(9.97966 0.237512 -2.63111e-20)
(9.95833 0.35611 2.81995e-20)
(9.92509 0.477554 3.02588e-24)
(9.88251 0.603912 2.70025e-20)
(9.83174 0.737196 2.67541e-20)
(9.77281 0.879309 1.79043e-21)
(9.70553 1.03198 -7.3177e-21)
(9.62983 1.19671 1.47831e-20)
(9.54568 1.37471 -2.25779e-20)
(9.45311 1.56702 1.52949e-20)
(9.3521 1.77453 -3.08802e-20)
(9.24271 1.99818 -2.36344e-20)
(9.12499 2.23903 3.15868e-20)
(8.999 2.4985 8.13655e-21)
(8.86479 2.77843 0)
(8.72232 3.08125 -2.08111e-21)
(8.57142 3.41014 -2.89807e-20)
(8.41167 3.76916 3.72707e-20)
(8.24233 4.16348 1.64901e-20)
(8.06211 4.59971 -8.63609e-21)
(7.86886 5.08642 7.29837e-20)
(7.65911 5.63493 -6.34308e-20)
(7.42719 6.26078 2.68777e-20)
(7.1633 6.98622 -1.19077e-19)
(6.85137 7.84506 -5.79418e-20)
(6.45314 8.89287 -4.33707e-20)
(5.91557 10.2331 -2.82048e-19)
(4.84691 12.1248 2.76155e-19)
(2.7846 15.3821 4.55434e-19)
(-0.133395 0.316701 5.2271e-19)
(-0.947652 0.360752 7.25336e-19)
(-1.55448 0.398123 -6.46392e-19)
(-2.38273 0.411355 0)
(-3.22605 0.413127 -3.79897e-19)
(-4.09921 0.398664 -1.14967e-20)
(-4.9635 0.369191 3.33136e-19)
(-5.78246 0.325086 0)
(-6.5164 0.267405 -1.60128e-19)
(-7.12449 0.197811 1.92231e-19)
(-7.56736 0.118522 -3.77126e-20)
(-7.81056 0.0320868 3.63601e-20)
(-7.82942 -0.0592476 3.29536e-20)
(-7.60778 -0.152768 -3.28751e-20)
(-7.14781 -0.240363 0)
(-6.47069 -0.31484 -1.20334e-20)
(-5.61249 -0.371363 1.48391e-20)
(-4.61902 -0.407566 -5.49343e-21)
(-3.53899 -0.423454 0)
(-2.41366 -0.421414 1.09789e-22)
(-1.28138 -0.403561 3.55036e-22)
(-0.15 -0.371935 0)
(0.872814 -0.335099 0)
(1.84921 -0.297086 0)
(2.74928 -0.261224 0)
(3.56742 -0.227895 0)
(4.30583 -0.197528 0)
(4.9691 -0.170629 3.7509e-24)
(5.56283 -0.147686 -1.90869e-24)
(6.21953 -0.13457 -1.61672e-24)
(-0.151928 0.828296 -1.45693e-18)
(-1.02196 0.93962 2.19292e-19)
(-1.68966 1.0276 1.00825e-18)
(-2.55619 1.0849 -1.08224e-18)
(-3.42857 1.11427 -3.45702e-19)
(-4.32472 1.10533 -6.66517e-19)
(-5.20521 1.05451 -2.17978e-20)
(-6.03385 0.959162 4.51402e-19)
(-6.77025 0.819062 3.06126e-19)
(-7.37265 0.636875 -3.4619e-20)
(-7.80065 0.418529 -1.83441e-19)
(-8.01931 0.173242 1.05361e-19)
(-8.00403 -0.0876097 -1.72983e-19)
(-7.74384 -0.347481 2.77581e-20)
(-7.24457 -0.584793 -4.50605e-20)
(-6.52964 -0.782882 0)
(-5.6365 -0.931679 2.71848e-21)
(-4.61112 -1.02778 -2.38593e-21)
(-3.50147 -1.07332 7.08013e-21)
(-2.3451 -1.07369 -1.34113e-20)
(-1.19002 -1.0385 3.57576e-21)
(-0.0297311 -0.971735 2.26673e-21)
(1.00838 -0.889255 -1.25425e-22)
(2.00613 -0.80239 -4.20067e-22)
(2.92908 -0.717801 -2.99673e-22)
(3.7728 -0.637243 0)
(4.53912 -0.562357 -3.23851e-23)
(5.23214 -0.494748 -4.45656e-24)
(5.85474 -0.435884 0)
(6.53872 -0.394524 0)
(-0.162003 1.47452 8.09215e-18)
(-1.03306 1.64436 -3.25944e-18)
(-1.75682 1.76998 6.78301e-19)
(-2.65227 1.85365 5.11605e-18)
(-3.54679 1.8888 -1.22878e-18)
(-4.45889 1.86079 -2.4685e-18)
(-5.34919 1.76254 -4.41343e-20)
(-6.18214 1.58962 1.91431e-18)
(-6.91699 1.34175 1.41358e-20)
(-7.51098 1.02369 -5.84417e-19)
(-7.9223 0.646001 -1.47814e-19)
(-8.11486 0.225556 0)
(-8.06459 -0.215867 -1.67614e-19)
(-7.76489 -0.650076 1.90668e-19)
(-7.22509 -1.04171 -1.36966e-20)
(-6.47344 -1.36414 1.24567e-20)
(-5.55077 -1.60213 -5.41099e-21)
(-4.50446 -1.75187 2.24362e-21)
(-3.38248 -1.81825 1.36139e-20)
(-2.22461 -1.81077 -1.44157e-20)
(-1.06737 -1.74772 -1.29284e-21)
(0.0772629 -1.635 0)
(1.10935 -1.49749 5.37813e-22)
(2.09755 -1.35546 0)
(3.01028 -1.21554 2.842e-22)
(3.84436 -1.0814 0)
(4.60156 -0.956219 2.07563e-23)
(5.28587 -0.842666 1.43716e-23)
(5.89841 -0.742722 -5.86135e-24)
(6.57443 -0.663979 5.67109e-24)
(-0.161973 2.19873 -6.2861e-18)
(-1.01954 2.41057 0)
(-1.79728 2.55852 -6.88779e-19)
(-2.71532 2.65683 2.60458e-18)
(-3.62767 2.68865 -4.5758e-18)
(-4.55169 2.63526 3.51594e-18)
(-5.44852 2.48562 -2.4914e-19)
(-6.28284 2.23275 -2.60698e-18)
(-7.01282 1.87551 5.5835e-19)
(-7.59367 1.4197 1.17668e-18)
(-7.98093 0.87939 -2.27792e-19)
(-8.13662 0.278205 -3.06426e-19)
(-8.03656 -0.351789 6.84112e-20)
(-7.68482 -0.963883 -1.49961e-19)
(-7.09494 -1.50911 2.21442e-19)
(-6.30079 -1.95244 -1.16202e-19)
(-5.34686 -2.2751 5.42767e-20)
(-4.28158 -2.47383 -7.31013e-21)
(-3.15247 -2.55666 -3.36712e-20)
(-2.00296 -2.54004 -1.08535e-20)
(-0.844958 -2.44442 1.25917e-20)
(0.259935 -2.28335 0)
(1.2808 -2.09003 0)
(2.24938 -1.89209 8.11259e-22)
(3.14282 -1.69681 3.45085e-22)
(3.95875 -1.5096 1.0304e-22)
(4.69893 -1.33499 -1.04207e-23)
(5.36739 -1.17648 1.00818e-23)
(5.96382 -1.03642 -3.32924e-22)
(6.62435 -0.921421 -3.15388e-22)
(-0.153244 2.98461 -3.90676e-19)
(-0.990717 3.22087 3.58617e-19)
(-1.81058 3.37897 3.22473e-19)
(-2.73723 3.48183 0)
(-3.65473 3.50176 2.98167e-19)
(-4.57812 3.41549 0)
(-5.46939 3.20722 -1.12138e-20)
(-6.29327 2.8667 2.81948e-19)
(-7.00662 2.39125 0)
(-7.56246 1.78765 0)
(-7.91347 1.07439 0)
(-8.0194 0.28404 0)
(-7.85872 -0.537456 0)
(-7.44878 -1.32427 0)
(-6.80654 -2.01556 0)
(-5.97181 -2.56946 1.03654e-19)
(-4.99223 -2.96545 -1.0234e-19)
(-3.91683 -3.20243 0)
(-2.79307 -3.29334 0)
(-1.65797 -3.26152 1.08135e-20)
(-0.519585 -3.12583 -1.11492e-20)
(0.535931 -2.91511 -2.78735e-21)
(1.53304 -2.66893 2.64478e-21)
(2.47093 -2.41641 -7.23624e-22)
(3.33505 -2.16701 4.71206e-22)
(4.12362 -1.928 7.28476e-23)
(4.83847 -1.70515 -5.36529e-24)
(5.48372 -1.50271 5.21858e-24)
(6.058 -1.32338 3.29026e-22)
(6.69618 -1.17268 3.02898e-22)
(-0.137141 3.8138 -5.65091e-18)
(-0.94427 4.05637 5.03017e-18)
(-1.78138 4.21484 0)
(-2.69372 4.31386 0)
(-3.5953 4.31497 1.77362e-18)
(-4.49828 4.18985 -3.37385e-18)
(-5.36603 3.91758 1.68226e-18)
(-6.16355 3.48408 0)
(-6.84655 2.88449 -6.10524e-19)
(-7.36542 2.12613 4.59071e-19)
(-7.66894 1.23236 0)
(-7.71306 0.245955 0)
(-7.48796 -0.769404 0)
(-7.01891 -1.72675 0)
(-6.32859 -2.55508 0)
(-5.46191 -3.20789 -1.23058e-20)
(-4.46842 -3.66494 -7.87673e-20)
(-3.39684 -3.92919 7.82498e-20)
(-2.29351 -4.01996 2.60855e-20)
(-1.18305 -3.96439 -2.52343e-20)
(-0.0922606 -3.78295 0)
(0.911168 -3.52259 3.33458e-21)
(1.87009 -3.22615 0)
(2.76596 -2.92061 5.06095e-22)
(3.59025 -2.61856 3.4781e-22)
(4.34178 -2.32931 -2.38693e-22)
(5.02255 -2.05985 1.49581e-22)
(5.63687 -1.81501 -1.23968e-23)
(6.18261 -1.59781 2.0435e-23)
(6.79094 -1.41257 -8.13105e-24)
(-0.114487 4.65041 2.52427e-18)
(-0.873226 4.88547 0)
(-1.68999 5.03815 2.34043e-18)
(-2.55738 5.12816 -4.54933e-18)
(-3.41552 5.10671 2.51836e-18)
(-4.27359 4.93996 1.46055e-19)
(-5.09679 4.6014 -2.83259e-19)
(-5.85071 4.07234 0)
(-6.48986 3.34481 0)
(-6.96095 2.42601 1.62861e-19)
(-7.20715 1.34506 0)
(-7.17918 0.15757 -9.6047e-20)
(-6.88832 -1.04985 0)
(-6.36493 -2.16887 0)
(-5.63763 -3.12131 0)
(-4.75452 -3.85887 0)
(-3.76498 -4.36365 0)
(-2.71599 -4.64408 2.28392e-21)
(-1.64933 -4.72562 -2.68637e-20)
(-0.578069 -4.63499 3.65159e-20)
(0.431292 -4.40808 -1.55296e-20)
(1.38514 -4.09998 -8.47979e-21)
(2.29132 -3.75519 3.45761e-21)
(3.13408 -3.39858 -1.06903e-21)
(3.90808 -3.046 -1.14932e-21)
(4.61294 -2.70885 -2.80667e-22)
(5.25102 -2.39513 -1.90464e-22)
(5.82678 -2.11017 -3.95747e-24)
(6.33773 -1.8572 4.26912e-25)
(6.90891 -1.63917 3.40448e-24)
(-0.0838704 5.4428 -5.61027e-18)
(-0.767673 5.66543 2.55786e-18)
(-1.5178 5.81192 1.49717e-19)
(-2.30419 5.89275 1.05986e-18)
(-3.08678 5.84981 -9.84338e-19)
(-3.87201 5.6433 -1.34679e-18)
(-4.62712 5.2406 2.40912e-18)
(-5.31857 4.61749 -1.22979e-18)
(-5.89933 3.76171 8.70156e-20)
(-6.31102 2.67927 9.44004e-20)
(-6.48969 1.40593 1.03644e-19)
(-6.38115 0.0160358 2.04497e-19)
(-6.02837 -1.37683 3.86025e-19)
(-5.46211 -2.64272 -3.1691e-19)
(-4.71644 -3.70217 1.38736e-19)
(-3.83952 -4.50871 -1.68679e-20)
(-2.87747 -5.04769 -1.89142e-19)
(-1.87426 -5.33352 8.93436e-20)
(-0.861779 -5.39559 0)
(0.134947 -5.26261 4.55304e-21)
(1.06068 -4.99285 1.63786e-21)
(1.95317 -4.6412 -7.49917e-21)
(2.79324 -4.24947 -1.7591e-21)
(3.57171 -3.84405 3.78778e-21)
(4.28517 -3.4437 2.26304e-21)
(4.93414 -3.06161 0)
(5.52141 -2.70665 0)
(6.05153 -2.38446 1.63263e-24)
(6.5219 -2.09836 -4.34236e-24)
(7.04919 -1.84986 -3.93455e-22)
(-0.0434142 6.13293 -1.40546e-18)
(-0.618712 6.34736 0)
(-1.25088 6.49408 0)
(-1.91705 6.57132 0)
(-2.58848 6.51339 -1.46144e-19)
(-3.26971 6.2743 0)
(-3.93017 5.81465 6.9585e-19)
(-4.5379 5.10364 -6.56688e-19)
(-5.04497 4.12308 6.11852e-19)
(-5.38673 2.87632 -2.65291e-20)
(-5.48742 1.40892 -1.0213e-18)
(-5.28523 -0.180532 -1.10436e-19)
(-4.88242 -1.74386 3.26407e-19)
(-4.29298 -3.13455 -6.78319e-19)
(-3.55575 -4.28018 2.79601e-19)
(-2.71449 -5.13919 9.46853e-22)
(-1.80781 -5.69969 1.50629e-21)
(-0.876135 -5.98061 -2.51078e-21)
(0.0618797 -6.01116 0)
(0.940924 -5.84057 1.6477e-20)
(1.795 -5.53153 -1.02342e-20)
(2.60838 -5.13887 6.37994e-21)
(3.36959 -4.70212 2.61948e-21)
(4.07257 -4.25085 -1.16288e-21)
(4.71562 -3.80628 -1.64855e-21)
(5.30014 -3.38302 0)
(5.82925 -2.99056 0)
(6.30747 -2.63466 -3.68906e-25)
(6.73225 -2.3186 3.66599e-25)
(7.20982 -2.04248 3.8793e-22)
(0.0114982 6.66252 1.73414e-19)
(-0.417353 6.88238 -1.60956e-19)
(-0.881945 7.04145 -3.19946e-19)
(-1.38861 7.12568 3.80314e-19)
(-1.91128 7.06436 6.43e-19)
(-2.45459 6.8049 4.26385e-20)
(-2.99037 6.30081 -6.99498e-19)
(-3.48969 5.51329 0)
(-3.90457 4.41639 5.03841e-20)
(-4.16095 3.01001 -4.86728e-20)
(-4.1637 1.35185 -8.6454e-21)
(-3.86489 -0.430038 0)
(-3.43578 -2.13477 0)
(-2.85374 -3.62242 2.20141e-20)
(-2.15897 -4.83416 0)
(-1.38563 -5.73041 -1.09845e-19)
(-0.565745 -6.29988 1.0134e-19)
(0.27081 -6.56387 0)
(1.07456 -6.56247 -7.97246e-21)
(1.86378 -6.36041 4.29707e-21)
(2.6237 -6.0171 -9.9994e-21)
(3.34227 -5.58485 -1.49437e-20)
(4.01162 -5.10606 2.85631e-21)
(4.62812 -4.61299 3.38097e-21)
(5.19152 -4.12876 -5.92172e-22)
(5.7039 -3.66896 1.16744e-21)
(6.16854 -3.24346 -1.2447e-21)
(6.58962 -2.85798 0)
(6.96474 -2.51564 0)
(7.38796 -2.21523 0)
(0.0830156 6.98178 1.73087e-19)
(-0.161133 7.22788 0)
(-0.413259 7.41377 1.64808e-19)
(-0.724099 7.51829 -2.36518e-19)
(-1.06064 7.46823 -1.70038e-19)
(-1.43072 7.20327 7.92736e-20)
(-1.80849 6.66914 2.89511e-19)
(-2.1703 5.81631 -8.13662e-19)
(-2.46895 4.60871 9.18256e-19)
(-2.61198 3.0469 -5.37004e-19)
(-2.47665 1.2075 -6.42215e-19)
(-2.1083 -0.72114 2.02649e-20)
(-1.69293 -2.52647 4.69234e-19)
(-1.16222 -4.07899 0)
(-0.54831 -5.33895 2.11406e-20)
(0.131587 -6.26582 -8.10305e-21)
(0.818274 -6.81922 7.20702e-20)
(1.51709 -7.06476 -4.37661e-20)
(2.21111 -7.04405 -7.88749e-21)
(2.88784 -6.81537 5.54856e-21)
(3.53472 -6.43926 -8.54749e-21)
(4.14306 -5.97055 8.58404e-21)
(4.70794 -5.4543 -6.81888e-21)
(5.22773 -4.92486 0)
(5.7033 -4.40663 0)
(6.13709 -3.91587 -1.12895e-21)
(6.53217 -3.46256 1.20873e-21)
(6.8921 -3.05224 -5.47714e-24)
(7.21457 -2.68775 1.78642e-22)
(7.58015 -2.36675 0)
(0.174221 7.06427 1.21458e-18)
(0.149213 7.35116 1.67342e-19)
(0.142663 7.58075 0)
(0.0562866 7.72272 -3.48672e-19)
(-0.0611757 7.70134 5.20893e-19)
(-0.226038 7.45163 -1.35884e-19)
(-0.413657 6.91235 1.49458e-19)
(-0.609069 6.02795 0)
(-0.763775 4.75926 0)
(-0.745225 3.09545 0)
(-0.452538 1.0977 4.22157e-19)
(-0.0443711 -1.00154 -7.00662e-19)
(0.31134 -2.91135 3.08888e-19)
(0.740646 -4.49354 -2.45279e-19)
(1.23287 -5.76273 1.0877e-19)
(1.76416 -6.6806 2.56325e-20)
(2.32134 -7.24549 -8.90696e-20)
(2.88972 -7.48516 -1.89049e-20)
(3.45149 -7.44682 1.41765e-20)
(3.99493 -7.19318 1.10874e-20)
(4.51133 -6.78774 -3.83682e-21)
(4.99532 -6.2878 3.56591e-21)
(5.44453 -5.74047 -4.45484e-21)
(5.85895 -5.18152 -3.13952e-21)
(6.24013 -4.63618 0)
(6.59043 -4.12097 0)
(6.91238 -3.64579 0)
(7.20854 -3.21588 0)
(7.47655 -2.83377 -1.69611e-22)
(7.78262 -2.49619 0)
(0.287224 6.89407 1.69398e-19)
(0.51152 7.23234 -3.24767e-19)
(0.765254 7.51795 0)
(0.920757 7.70826 0)
(1.0417 7.72939 0)
(1.10791 7.51439 0)
(1.14033 6.99266 0)
(1.15351 6.09306 0)
(1.21275 4.74956 -2.73282e-19)
(1.45006 2.9556 1.58714e-19)
(1.86455 0.872388 -5.94306e-19)
(2.18587 -1.20672 3.05999e-19)
(2.44105 -3.11933 0)
(2.75753 -4.76393 4.53242e-20)
(3.12632 -6.07292 -3.1778e-20)
(3.52509 -7.01358 3.75783e-20)
(3.93986 -7.58211 7.2083e-20)
(4.35805 -7.81233 1.75567e-20)
(4.7675 -7.75746 1.38623e-20)
(5.16031 -7.48256 -1.04655e-20)
(5.53185 -7.05356 1.60226e-20)
(5.88012 -6.52967 1.29381e-21)
(6.20506 -5.95935 -1.47718e-21)
(6.50786 -5.37917 3.05207e-21)
(6.79028 -4.81469 -2.07289e-23)
(7.05421 -4.28236 0)
(7.30118 -3.79185 1.83638e-21)
(7.53246 -3.34804 1.05062e-21)
(7.74543 -2.95311 -4.0203e-23)
(7.99154 -2.60315 0)
(0.438737 6.41895 -5.06032e-19)
(0.937188 6.86148 -1.13027e-18)
(1.4493 7.21943 -6.05345e-20)
(1.84875 7.463 1.18696e-18)
(2.21014 7.53372 0)
(2.51698 7.35937 -3.51363e-19)
(2.78695 6.85954 3.52998e-19)
(3.04103 5.95413 0)
(3.33531 4.5853 3.88597e-19)
(3.71196 2.7947 1.77401e-19)
(4.15969 0.739001 -2.4321e-19)
(4.42543 -1.37023 1.76214e-21)
(4.63156 -3.31377 0)
(4.85708 -4.97938 -7.78799e-20)
(5.105 -6.30255 1.32191e-19)
(5.36401 -7.24805 -1.06333e-19)
(5.6247 -7.81414 4.65302e-20)
(5.8796 -8.0346 0)
(6.12325 -7.96577 -1.30936e-20)
(6.35345 -7.67504 0)
(6.57042 -7.23009 -1.56281e-20)
(6.77573 -6.69126 1.16141e-20)
(6.97144 -6.10754 4.62993e-21)
(7.15956 -5.51561 0)
(7.34165 -4.94084 0)
(7.51863 -4.39937 0)
(7.69073 -3.90047 -3.62309e-21)
(7.85762 -3.44867 -1.18031e-21)
(8.01624 -3.04584 0)
(8.20325 -2.68777 -9.2419e-23)
(0.681469 5.45087 -9.9334e-19)
(1.46763 6.25772 -2.464e-18)
(2.19288 6.71943 6.80123e-19)
(2.8207 7.00958 5.58777e-19)
(3.41248 7.12989 -1.4543e-19)
(3.94993 6.99872 0)
(4.44842 6.52407 3.53286e-19)
(4.92918 5.62474 -3.61365e-19)
(5.4139 4.26311 -3.25747e-19)
(5.89491 2.50179 -3.62558e-21)
(6.34573 0.498472 1.35833e-19)
(6.61016 -1.54997 2.05536e-21)
(6.79037 -3.46338 4.33402e-20)
(6.94769 -5.12134 -3.63854e-21)
(7.09027 -6.44159 -3.20863e-20)
(7.2149 -7.38078 0)
(7.31987 -7.93723 0)
(7.40635 -8.14605 0)
(7.4779 -8.06591 1.24749e-20)
(7.53993 -7.76574 0)
(7.59843 -7.31382 7.58608e-21)
(7.65871 -6.7704 -1.21869e-20)
(7.72477 -6.18401 6.44893e-22)
(7.79901 -5.59066 -6.8908e-22)
(7.88236 -5.01506 6.99887e-22)
(7.97441 -4.47276 0)
(8.07379 -3.9726 2.18191e-21)
(8.1784 -3.51879 -3.21575e-22)
(8.28454 -3.11296 1.14024e-22)
(8.41446 -2.75094 3.24592e-22)
(9.98991 0.124327 -8.09415e-22)
(9.9815 0.246996 2.86052e-20)
(9.9627 0.37029 -2.96052e-20)
(9.93308 0.496492 -2.29615e-20)
(9.89516 0.627717 -5.50221e-20)
(9.85017 0.766013 -2.68056e-20)
(9.79822 0.913322 1.26991e-20)
(9.7392 1.0714 -1.28544e-20)
(9.67316 1.24176 6.85489e-21)
(9.60022 1.42563 7.05793e-21)
(9.52054 1.62401 1.98946e-22)
(9.4343 1.8378 -2.16509e-20)
(9.34176 2.06787 -7.31673e-21)
(9.24324 2.3153 1.47902e-20)
(9.13912 2.58145 1.13256e-20)
(9.02983 2.86818 6.38592e-23)
(8.91586 3.17795 -1.51269e-20)
(8.79772 3.51396 -3.86657e-21)
(8.67592 3.88041 -3.62859e-21)
(8.55101 4.28264 3.69647e-21)
(8.42353 4.72758 -8.27056e-21)
(8.29408 5.2243 -8.67148e-20)
(8.16341 5.78499 8.53901e-20)
(8.03278 6.42666 -7.44774e-20)
(7.90462 7.17421 8.09949e-21)
(7.78657 8.06648 9.08011e-20)
(7.69568 9.16826 3.98413e-20)
(7.75097 10.594 0)
(8.38995 12.5311 0)
(8.88161 15.5729 2.25764e-19)
(9.99036 0.12871 5.13813e-20)
(9.98344 0.255666 -4.71504e-21)
(9.96731 0.383206 2.82976e-20)
(9.94145 0.513667 2.24383e-20)
(9.9084 0.649197 2.90798e-20)
(9.86942 0.791872 3.49899e-22)
(9.82467 0.943654 -3.92591e-20)
(9.77418 1.10632 2.07833e-22)
(9.7181 1.28136 -1.43578e-20)
(9.65669 1.47 8.44006e-22)
(9.59026 1.67321 1.38243e-20)
(9.51919 1.89182 1.54401e-22)
(9.44396 2.12664 -6.98469e-21)
(9.36515 2.37867 3.53913e-21)
(9.28346 2.64918 5.31673e-21)
(9.19975 2.93994 0)
(9.11503 3.25327 -3.53054e-21)
(9.0305 3.59225 3.5275e-21)
(8.94764 3.96087 7.14261e-21)
(8.8683 4.36425 -1.3383e-20)
(8.7949 4.80891 -8.0785e-22)
(8.73079 5.30328 -1.25031e-20)
(8.68092 5.8584 0)
(8.65329 6.489 -8.73182e-20)
(8.66169 7.21517 1.61961e-19)
(8.73321 8.06434 -7.43817e-20)
(8.91407 9.07198 0)
(9.27909 10.2775 9.07319e-21)
(10.112 11.6182 -8.56629e-21)
(10.8553 12.7098 7.15901e-20)
(9.99084 0.132611 -4.86432e-20)
(9.98546 0.26337 0)
(9.97209 0.394649 -2.45366e-20)
(9.95015 0.528824 -2.44015e-20)
(9.92212 0.668066 2.45918e-20)
(9.88932 0.814462 6.61498e-21)
(9.85199 0.969977 1.91077e-20)
(9.81024 1.13638 1.28226e-20)
(9.76435 1.31515 0)
(9.7147 1.50746 0)
(9.66177 1.71421 0)
(9.60611 1.93615 6.64458e-21)
(9.54842 2.17399 -2.0661e-22)
(9.48953 2.42858 3.5689e-21)
(9.43047 2.70104 -5.25615e-23)
(9.37248 2.99294 3.30833e-21)
(9.31708 3.30634 -9.87781e-21)
(9.2661 3.64399 -6.42815e-21)
(9.22189 4.0094 -1.25504e-20)
(9.18743 4.407 3.83089e-20)
(9.16666 4.84231 -7.65202e-22)
(9.16505 5.32208 1.20468e-20)
(9.19032 5.85455 0)
(9.25397 6.4495 -7.50205e-20)
(9.3732 7.11778 7.35819e-20)
(9.57411 7.86919 0)
(9.8919 8.7055 1.5152e-20)
(10.343 9.61334 -1.49525e-20)
(11.0531 10.5324 -3.79137e-21)
(11.9452 11.2143 2.13189e-20)
(9.99133 0.135982 4.63738e-20)
(9.98755 0.270006 -4.65195e-20)
(9.97701 0.404465 0)
(9.95908 0.541753 1.78985e-20)
(9.93619 0.684049 1.75425e-20)
(9.9097 0.833436 1.22008e-20)
(9.87992 0.99187 0)
(9.84706 1.1611 -1.20822e-20)
(9.81149 1.34255 -1.37593e-22)
(9.77372 1.53733 1.23374e-20)
(9.73438 1.74625 -1.22843e-20)
(9.69419 1.96996 0)
(9.65404 2.209 0)
(9.61499 2.46404 0)
(9.57835 2.73598 -1.58749e-21)
(9.54571 3.02608 0)
(9.51901 3.33605 0)
(9.5006 3.6681 -2.40276e-20)
(9.49346 4.02507 1.81508e-20)
(9.5014 4.41041 -4.52491e-20)