/*--------------------------------*- C++ -*----------------------------------*\
| =========                 |                                                 |
| \\      /  F ield         | OpenFOAM: The Open Source CFD Toolbox           |
|  \\    /   O peration     | Version:  5.x                                   |
|   \\  /    A nd           | Web:      www.OpenFOAM.org                      |
|    \\/     M anipulation  |                                                 |
\*---------------------------------------------------------------------------*/
FoamFile
{
    version     2.0;
    format      ascii;
    class       surfaceVectorField;
    location    "0.2";
    object      Uf;
}
// * * * * * * * * * * * * * * * * * * * * * * * * * * * * * * * * * * * * * //

dimensions      [0 1 -1 0 0 0 0];

internalField   nonuniform List<vector> 
5457
(
(9.9218 0.0242677 -3.19866e-24)
(9.96534 0.0376435 5.41955e-23)
(9.82811 0.0313365 -1.19024e-22)
(9.92879 0.0462485 3.14341e-24)
(9.71898 0.0371801 2.63622e-24)
(9.86292 0.0552556 3.67557e-21)
(9.59209 0.0432153 1.15091e-21)
(9.77106 0.0659025 2.00128e-21)
(9.44731 0.0494348 2.05738e-21)
(9.65972 0.0771145 5.80775e-22)
(9.28477 0.0558446 9.6949e-22)
(9.53067 0.0887821 2.52837e-21)
(9.10425 0.0625385 -5.76887e-22)
(9.38317 0.101108 -5.30714e-21)
(8.90529 0.0695969 1.21993e-21)
(9.21622 0.114261 1.60911e-21)
(8.68734 0.0770667 4.92015e-22)
(9.02904 0.128335 5.23022e-21)
(8.44985 0.0849772 -1.21599e-21)
(8.82094 0.143382 -2.37692e-21)
(8.1923 0.0933528 0)
(8.59122 0.159428 0)
(7.91423 0.10222 5.88764e-21)
(8.3392 0.176486 1.05563e-20)
(7.61526 0.111611 -3.29209e-22)
(8.06428 0.194563 -5.01324e-21)
(7.29509 0.121562 -5.92213e-21)
(7.76593 0.21366 -5.9971e-21)
(6.95351 0.132114 6.92722e-21)
(7.44375 0.23377 -3.69177e-20)
(6.5904 0.143304 -6.27432e-22)
(7.09745 0.254871 5.21031e-20)
(6.20583 0.155152 2.48046e-20)
(6.72689 0.276911 -1.38263e-20)
(5.80007 0.167652 -1.90454e-20)
(6.33215 0.299784 9.08302e-20)
(5.37369 0.180754 -4.89926e-20)
(5.91354 0.323306 -9.55834e-20)
(4.9277 0.194351 7.89547e-20)
(5.47175 0.347189 0)
(4.46366 0.208272 -4.812e-20)
(5.00794 0.371016 2.22511e-19)
(3.98381 0.222277 6.14599e-20)
(4.52385 0.394233 -2.36862e-19)
(3.4911 0.236078 -1.5657e-20)
(4.02189 0.41615 2.63336e-19)
(2.98924 0.249392 -1.89351e-19)
(3.50518 0.435987 -1.0301e-19)
(2.48253 0.262022 0)
(2.97748 0.452952 -1.9218e-19)
(1.97558 0.274192 -1.25084e-19)
(2.44313 0.466381 0)
(1.47227 0.284702 -6.66589e-19)
(1.90456 0.476313 -6.95407e-19)
(0.979604 0.299488 2.00185e-19)
(1.38535 0.47892 4.43396e-19)
(0.485156 0.32273 1.36458e-18)
(0.76407 0.491286 -1.82559e-18)
(0.466766 0.492008 3.00887e-18)
(9.99852 0.049168 5.9275e-23)
(9.99156 0.0383576 -3.59763e-24)
(9.9647 0.0665546 3.84428e-21)
(9.97946 0.0629432 2.94895e-22)
(9.90984 0.0819209 5.65296e-21)
(9.94218 0.0830347 -4.06518e-21)
(9.83565 0.0981715 1.41354e-21)
(9.8798 0.104433 6.81632e-24)
(9.74178 0.11534 1.0766e-21)
(9.79742 0.127118 -2.48806e-21)
(9.62791 0.133445 -3.84634e-21)
(9.69682 0.150979 1.53367e-21)
(9.49357 0.152723 -3.03448e-21)
(9.57737 0.176351 -7.39909e-21)
(9.33803 0.173389 5.66453e-21)
(9.43799 0.203588 -2.15887e-21)
(9.16042 0.195578 2.26624e-21)
(9.27771 0.232924 3.46957e-21)
(8.9598 0.219363 -1.13116e-21)
(9.09563 0.264503 -3.49265e-21)
(8.73528 0.244784 1.06877e-20)
(8.89078 0.298411 -9.88994e-21)
(8.48602 0.271859 -5.38741e-22)
(8.66219 0.334693 2.06628e-20)
(8.21126 0.300592 -1.06936e-20)
(8.40895 0.37337 -1.08287e-20)
(7.9104 0.330972 -3.73788e-20)
(8.13022 0.414442 1.12248e-20)
(7.58292 0.362969 9.36342e-21)
(7.82528 0.457886 -2.50334e-20)
(7.22849 0.396517 3.80826e-20)
(7.49354 0.503647 6.9876e-21)
(6.84698 0.431488 5.3528e-20)
(7.13457 0.551611 3.24653e-20)
(6.43849 0.46766 1.19828e-20)
(6.74809 0.601564 5.92276e-20)
(6.00343 0.504683 -4.53443e-20)
(6.3341 0.65315 -4.59305e-20)
(5.54266 0.542041 1.46415e-19)
(5.89288 0.70582 0)
(5.0575 0.579038 2.80615e-20)
(5.42514 0.758792 4.19078e-19)
(4.54992 0.614789 -2.83572e-20)
(4.93207 0.811025 -3.27745e-19)
(4.02251 0.648267 1.71308e-19)
(4.41545 0.861231 -4.69046e-19)
(3.47854 0.6784 -1.06949e-19)
(3.87772 0.907944 6.66676e-19)
(2.92177 0.704248 -1.89721e-19)
(3.3219 0.949673 -1.17254e-20)
(2.35622 0.72547 -5.78137e-19)
(2.75174 0.985151 0)
(1.78532 0.741176 4.25277e-19)
(2.16814 1.01426 -9.91496e-19)
(1.21045 0.757334 -1.59997e-18)
(1.59705 1.03447 9.80145e-19)
(0.629975 0.776254 -1.31237e-19)
(0.922663 1.064 -2.29579e-18)
(0.530877 1.07973 2.35305e-18)
(9.99111 0.0552792 2.3578e-22)
(9.9893 0.0426349 -2.2899e-22)
(9.96018 0.0824479 -7.67219e-21)
(9.97459 0.0782101 4.6482e-22)
(9.90865 0.10816 -9.66239e-21)
(9.93811 0.109129 -3.08538e-21)
(9.839 0.135234 -3.92685e-21)
(9.87853 0.140602 -2.89207e-21)
(9.75138 0.164012 -1.98077e-21)
(9.79981 0.173785 1.93675e-21)
(9.6454 0.194653 -2.13121e-21)
(9.70375 0.208866 -1.33625e-23)
(9.52053 0.227517 -6.45766e-21)
(9.58993 0.246288 -2.11781e-21)
(9.37603 0.262958 -4.28374e-21)
(9.45735 0.286568 8.57669e-21)
(9.21099 0.301224 -2.37594e-21)
(9.3051 0.330103 -4.4147e-21)
(9.02437 0.342466 -1.23305e-20)
(9.13225 0.377167 -2.34676e-21)
(8.8151 0.386776 4.6551e-22)
(8.93783 0.427942 -9.89009e-21)
(8.58213 0.434198 9.98078e-21)
(8.72078 0.482546 1.01065e-20)
(8.32445 0.484748 1.13645e-20)
(8.4801 0.541046 -2.12635e-20)
(8.04114 0.538413 2.31116e-20)
(8.2148 0.603479 6.65191e-20)
(7.73137 0.595151 -2.70164e-20)
(7.92397 0.669844 -3.37729e-20)
(7.39442 0.65486 1.69179e-21)
(7.60677 0.740096 -5.04735e-20)
(7.02973 0.71735 3.85131e-20)
(7.26246 0.81411 6.45432e-20)
(6.63691 0.782286 0)
(6.89041 0.891635 0)
(6.2158 0.849135 0)
(6.49013 0.972226 0)
(5.76656 0.917104 2.77997e-19)
(6.06135 1.05518 2.46662e-19)
(5.28975 0.985105 5.39581e-20)
(5.60405 1.13946 1.87583e-20)
(4.78643 1.05173 -7.70129e-19)
(5.11863 1.22366 -2.83714e-19)
(4.25823 1.1153 4.04095e-20)
(4.60595 1.30599 -5.52778e-19)
(3.70744 1.17399 7.53152e-19)
(4.06744 1.38435 5.77828e-19)
(3.13692 1.22604 1.78078e-19)
(3.50522 1.4565 1.22505e-20)
(2.55008 1.27039 -4.25341e-19)
(2.92246 1.52035 -1.8081e-19)
(1.95021 1.30579 -4.15732e-19)
(2.3189 1.57522 -2.23223e-19)
(1.34075 1.33726 2.50656e-19)
(1.72406 1.61789 0)
(0.725844 1.36611 2.42015e-19)
(1.02793 1.66444 4.16938e-18)
(0.579889 1.68887 -5.02801e-18)
(9.98717 0.0658547 9.82193e-24)
(9.98813 0.04881 -7.51626e-21)
(9.95613 0.103959 5.00527e-21)
(9.97169 0.0935299 -7.13783e-21)
(9.90552 0.140583 3.68692e-21)
(9.93501 0.134758 4.71642e-21)
(9.837 0.178243 3.03229e-21)
(9.87651 0.176187 -8.58273e-21)
(9.75105 0.217838 3.87979e-21)
(9.79942 0.219562 1.50335e-23)
(9.6474 0.259859 -2.70539e-23)
(9.7054 0.265481 0)
(9.52555 0.304867 1.30491e-20)
(9.59416 0.31453 -2.67199e-23)
(9.38486 0.353401 8.28298e-21)
(9.46482 0.36736 1.29139e-20)
(9.22451 0.405879 -4.35985e-21)
(9.31653 0.424516 -4.41475e-21)
(9.04357 0.462601 0)
(9.14844 0.486401 9.33352e-21)
(8.84103 0.523772 0)
(8.95964 0.553302 -1.87411e-20)
(8.6159 0.589529 -2.15276e-20)
(8.74914 0.625419 1.99427e-20)
(8.36716 0.659962 3.49821e-20)
(8.51598 0.702892 -9.34649e-20)
(8.09386 0.735119 8.39184e-21)
(8.25916 0.785819 1.52022e-19)
(7.79506 0.815003 -5.74393e-20)
(7.97775 0.874261 -6.77318e-20)
(7.46989 0.899547 1.38078e-20)
(7.67082 0.96823 8.35614e-20)
(7.11753 0.988575 2.52228e-20)
(7.33745 1.06765 -9.75349e-20)
(6.73725 1.08173 0)
(6.97676 1.17232 2.60063e-20)
(6.32842 1.17842 2.49747e-19)
(6.58791 1.28179 -1.68803e-19)
(5.89062 1.27769 -1.5277e-20)
(6.17015 1.39531 4.77183e-19)
(5.42367 1.37822 -3.22668e-19)
(5.72287 1.51174 -1.94449e-19)
(4.92776 1.47821 -6.97862e-20)
(5.24567 1.62941 -6.92163e-20)
(4.40359 1.57545 -1.3959e-21)
(4.73856 1.74614 -1.41523e-19)
(3.85248 1.66737 -1.7005e-19)
(4.20205 1.8592 0)
(3.27656 1.75129 -3.4892e-19)
(3.63738 1.96549 1.27086e-18)
(2.6789 1.82513 2.03754e-20)
(3.04738 2.06168 -1.19049e-18)
(2.06349 1.88646 1.94651e-19)
(2.43088 2.14572 1.96704e-19)
(1.43624 1.9381 3.95579e-18)
(1.82111 2.21216 0)
(0.806232 1.97787 -1.19065e-18)
(1.11411 2.2731 3.69527e-18)
(0.624571 2.29652 -4.7739e-18)
(9.98531 0.0770493 -1.46581e-20)
(9.98758 0.0558818 -4.54474e-24)
(9.95381 0.124545 -7.27629e-21)
(9.97029 0.10908 -4.68723e-22)
(9.90404 0.170852 -7.72077e-21)
(9.93363 0.159957 1.39903e-21)
(9.83681 0.218252 -1.1492e-20)
(9.87628 0.211101 -9.67751e-22)
(9.75261 0.268049 -3.86516e-21)
(9.80103 0.264408 -3.91423e-21)
(9.65125 0.32103 0)
(9.7093 0.320846 0)
(9.53224 0.377907 0)
(9.60085 0.381183 -8.13511e-21)
(9.39495 0.439343 0)
(9.47488 0.446195 8.37494e-21)
(9.23863 0.505874 9.4495e-21)
(9.33057 0.516557 0)
(9.0624 0.577896 -9.75699e-21)
(9.16711 0.592791 1.83337e-20)
(8.86532 0.655696 1.68091e-21)
(8.98364 0.675284 -2.80027e-20)
(8.64643 0.739479 -5.34e-20)
(8.77924 0.76432 1.99433e-20)
(8.40478 0.829398 2.6615e-20)
(8.55297 0.860117 -6.21066e-20)
(8.13942 0.925568 7.31811e-20)
(8.30386 0.962849 8.61977e-20)
(7.84937 1.02806 7.51449e-20)
(8.03096 1.07266 -4.40892e-20)
(7.53367 1.1369 -3.00035e-20)
(7.73327 1.18967 7.29986e-20)
(7.19135 1.25196 -9.52301e-20)
(7.40977 1.31389 -9.92308e-20)
(6.8214 1.37298 -1.45204e-19)
(7.05935 1.44523 -2.43715e-20)
(6.42285 1.49938 6.65496e-20)
(6.68088 1.58335 -2.22148e-19)
(5.99474 1.63019 2.89781e-19)
(6.27317 1.72756 2.30523e-19)
(5.53625 1.76397 6.05939e-20)
(5.83502 1.87671 4.7817e-19)
(5.04681 1.89865 -1.41802e-19)
(5.36534 2.02901 -9.94127e-19)
(4.52624 2.03152 -1.38439e-19)
(4.86327 2.18195 2.50189e-19)
(3.97501 2.15926 1.45554e-18)
(4.3284 2.3322 1.38221e-19)
(3.39457 2.278 4.02185e-19)
(3.76106 2.47562 1.43852e-18)
(2.78788 2.38407 -9.98169e-19)
(3.16378 2.60726 1.07554e-19)
(2.15979 2.47296 0)
(2.53447 2.72287 -1.34953e-18)
(1.51816 2.5441 -2.16833e-19)
(1.90923 2.81396 0)
(0.875925 2.58864 2.70025e-20)
(1.19095 2.88721 -2.14196e-19)
(0.664826 2.90088 4.52378e-19)
(9.9845 0.0885764 1.41791e-20)
(9.98738 0.063344 7.283e-21)
(9.95286 0.144923 8.23058e-21)
(9.96984 0.1247 6.90085e-21)
(9.90412 0.200636 8.12223e-21)
(9.9336 0.184634 1.39903e-21)
(9.83858 0.257724 6.57279e-21)
(9.87767 0.24514 8.54638e-21)
(9.75657 0.317657 0)
(9.80458 0.308085 -1.91338e-21)
(9.65796 0.381436 -8.23674e-21)
(9.71561 0.374705 0)
(9.54229 0.449919 4.45475e-22)
(9.61047 0.445964 -4.5552e-23)
(9.40896 0.523887 8.27091e-21)
(9.48845 0.522763 5.59155e-23)
(9.25723 0.603994 9.11097e-21)
(9.34875 0.605897 1.72435e-20)
(9.08626 0.690747 -4.87985e-22)
(9.19062 0.695999 -1.7272e-20)
(8.89517 0.784528 -9.14675e-21)
(9.01323 0.793553 -9.75626e-23)
(8.68304 0.885629 1.02206e-20)
(8.81569 0.898928 0)
(8.44893 0.994289 -6.89398e-22)
(8.5971 1.01243 1.00962e-20)
(8.19188 1.11072 -3.26808e-20)
(8.3565 1.13431 -6.20045e-20)
(7.91088 1.23509 -4.47897e-20)
(8.0929 1.26484 4.11667e-20)
(7.60488 1.36755 1.65259e-21)
(7.80525 1.40425 -2.24686e-20)
(7.27272 1.50813 -2.74352e-20)
(7.49237 1.55273 1.17318e-19)
(6.91316 1.65667 -1.03743e-19)
(7.15299 1.71034 -2.93906e-19)
(6.52484 1.81275 -5.26813e-20)
(6.78563 1.87693 1.47241e-19)
(6.10632 1.97547 4.21863e-19)
(6.38866 2.052 -2.15265e-19)
(5.65612 2.14339 -5.93941e-19)
(5.9603 2.2345 6.37763e-19)
(5.17285 2.31426 -5.87807e-19)
(5.49867 2.42267 -9.94198e-19)
(4.65541 2.48495 5.25604e-19)
(5.00196 2.61378 4.54062e-19)
(4.10334 2.65128 1.36646e-19)
(4.46869 2.80394 7.08421e-20)
(3.51726 2.80796 1.12899e-18)
(3.89802 2.98789 1.36658e-19)
(2.89977 2.94918 -2.59246e-19)
(3.29179 3.15875 1.11634e-18)
(2.25626 3.06748 -1.33376e-18)
(2.6467 3.30939 -1.42603e-18)
(1.59603 3.15791 0)
(2.00028 3.42764 0)
(0.934972 3.20158 2.18225e-19)
(1.26257 3.51358 0)
(0.698883 3.50969 -1.26892e-18)
(9.98428 0.100188 0)
(9.98736 0.0709109 -1.4558e-20)
(9.95292 0.164983 0)
(9.97 0.14018 -1.42394e-20)
(9.90544 0.229674 1.91374e-21)
(9.93458 0.208676 -9.20581e-22)
(9.84191 0.29608 -7.07691e-23)
(9.88035 0.278136 2.82081e-21)
(9.76252 0.365757 -1.88943e-21)
(9.80977 0.350368 -1.91339e-21)
(9.66716 0.439898 8.19027e-21)
(9.72398 0.426789 -3.91272e-21)
(9.55542 0.519522 -4.33664e-22)
(9.6227 0.508546 1.20495e-20)
(9.42671 0.605541 9.24215e-21)
(9.50524 0.596673 -8.31884e-21)
(9.28034 0.698721 -9.56784e-21)
(9.37089 0.692076 1.72438e-20)
(9.11552 0.799673 -1.66704e-20)
(9.21891 0.795496 -1.75675e-20)
(8.93139 0.908869 9.05029e-21)
(9.04854 0.907509 9.16347e-21)
(8.72707 1.02669 0)
(8.85892 1.02857 3.73837e-20)
(8.50163 1.15346 -5.21072e-20)
(8.64917 1.15908 -7.66414e-20)
(8.2541 1.2895 1.3107e-20)
(8.41834 1.29941 -2.18333e-21)
(7.98342 1.43512 6.27105e-20)
(8.16544 1.44993 4.2418e-20)
(7.68845 1.59062 9.49081e-20)
(7.88934 1.61105 2.18965e-20)
(7.36785 1.75623 -1.54142e-19)
(7.58874 1.78316 -1.92741e-20)
(7.02011 1.93202 -3.7636e-20)
(7.26216 1.96657 -3.4011e-19)
(6.64349 2.11778 -1.967e-20)
(6.90781 2.16142 1.96242e-19)
(6.23601 2.31285 1.07379e-20)
(6.5236 2.36749 -1.51691e-20)
(5.79546 2.51591 2.18325e-19)
(6.10709 2.58403 2.20918e-19)
(5.31954 2.72471 6.44937e-20)
(5.65555 2.80945 5.45774e-20)
(4.80602 2.93579 -5.11302e-21)
(5.16603 3.04102 1.22391e-19)
(4.25316 3.14417 7.1524e-20)
(4.63565 3.27444 -6.20128e-19)
(3.66033 3.34303 1.35146e-19)
(4.06192 3.50343 4.52306e-19)
(3.02907 3.52395 -7.83233e-20)
(3.44523 3.71906 5.45971e-19)
(2.36457 3.67586 -7.65685e-20)
(2.78041 3.91082 -5.77332e-19)
(1.67687 3.78867 0)
(2.10445 4.06223 0)
(0.983723 3.82975 -1.49843e-18)
(1.33382 4.16589 0)
(0.726563 4.14318 -1.23588e-19)
(9.98443 0.111679 -2.87924e-20)
(9.98746 0.0784062 -1.42475e-20)
(9.95373 0.184563 -1.49911e-20)
(9.97059 0.155335 -1.66571e-23)
(9.90776 0.257793 3.33453e-23)
(9.93633 0.231951 -1.8337e-21)
(9.84654 0.333111 9.19224e-22)
(9.8841 0.309929 3.71025e-21)
(9.77018 0.412132 -3.96169e-21)
(9.81637 0.39104 -1.87664e-21)
(9.67856 0.49621 1.45961e-22)
(9.73418 0.47683 -3.91274e-21)
(9.57132 0.586514 3.9109e-21)
(9.63727 0.568608 3.96015e-21)
(9.44791 0.684078 0)
(9.52498 0.667538 0)
(9.30769 0.789775 8.81163e-21)
(9.39667 0.774637 0)
(9.1499 0.904312 8.59656e-21)
(9.25167 0.890742 2.58678e-20)
(8.97375 1.02825 3.78446e-20)
(9.08925 1.01652 -3.50539e-20)
(8.77839 1.16206 -4.06585e-20)
(8.90862 1.15252 1.00757e-19)
(8.56293 1.30618 -2.5809e-20)
(8.70894 1.29924 -1.136e-19)
(8.32637 1.46105 2.76773e-20)
(8.48929 1.45715 9.78498e-20)
(8.06765 1.62714 1.34836e-21)
(8.24866 1.6268 -6.02753e-20)
(7.78552 1.80496 -9.27851e-20)
(7.9859 1.80878 2.15936e-20)
(7.47849 1.99498 -2.09131e-19)
(7.69963 2.00373 -4.86374e-21)
(7.14481 2.19759 -9.98418e-20)
(7.38816 2.21229 -1.8506e-19)
(6.78233 2.41293 1.98159e-19)
(7.04944 2.43498 -1.90955e-19)
(6.38851 2.64072 1.97786e-19)
(6.68092 2.67203 5.83781e-19)
(5.96037 2.87996 5.5209e-20)
(6.27951 2.92315 -1.9743e-19)
(5.4945 3.12862 1.1326e-19)
(5.84151 3.18721 2.02798e-21)
(4.98729 3.38317 -5.00931e-19)
(5.36267 3.46179 5.8636e-20)
(4.43521 3.63808 -2.27797e-19)
(4.83832 3.74254 -5.52761e-19)
(3.83562 3.88507 8.64053e-19)
(4.26362 4.02251 -9.99458e-20)
(3.18797 4.11298 3.45421e-20)
(3.63642 4.29098 5.54507e-19)
(2.49592 4.3065 -4.93799e-19)
(2.94845 4.53381 2.18407e-20)
(1.76922 4.44954 0)
(2.23374 4.72942 0)
(1.0271 4.49249 1.37184e-18)
(1.41277 4.86159 -1.85046e-20)
(0.750218 4.82402 1.44099e-18)
(9.98482 0.122898 1.47054e-20)
(9.98765 0.0857122 1.45392e-20)
(9.95509 0.203513 1.31174e-20)
(9.9715 0.17001 1.42223e-20)
(9.9109 0.284848 1.91241e-21)
(9.93868 0.254325 -1.8183e-21)
(9.85231 0.368641 8.44728e-22)
(9.88875 0.340362 2.01326e-20)
(9.77935 0.456564 -1.85317e-21)
(9.82418 0.429897 -1.11565e-20)
(9.69193 0.5501 0)
(9.74599 0.524576 -7.56349e-21)
(9.58972 0.650556 0)
(9.65392 0.625846 7.8058e-21)
(9.47225 0.759081 0)
(9.54738 0.734995 1.04966e-22)
(9.33891 0.876651 1.73759e-20)
(9.42578 0.853141 -1.61588e-20)
(9.18902 1.00406 -1.85337e-20)
(9.28852 0.981215 8.87253e-21)
(9.02185 1.14197 2.9528e-20)
(9.13494 1.11997 -6.08624e-20)
(8.8366 1.29094 2.51897e-20)
(8.96434 1.27005 8.07315e-20)
(8.63242 1.45151 1.26456e-20)
(8.77593 1.43203 -4.59626e-20)
(8.40837 1.62427 7.97221e-21)
(8.56885 1.60653 3.91275e-20)
(8.16335 1.80988 -3.90371e-20)
(8.34212 1.79426 -2.99591e-20)
(7.89607 2.00908 1.09196e-19)
(8.0946 1.99603 9.85517e-21)
(7.60495 2.22267 1.70637e-20)
(7.82486 2.21278 4.05116e-21)
(7.28801 2.45143 -2.76273e-19)
(7.53112 2.44553 -4.6812e-20)
(6.94277 2.69599 2.03717e-19)
(7.21109 2.6953 -1.86623e-19)
(6.56616 2.9566 1.79515e-19)
(6.86187 2.9629 4.0601e-19)
(6.15437 3.23287 -2.48333e-19)
(6.47976 3.24878 -1.97448e-19)
(5.70282 3.52334 -5.19599e-20)
(6.06013 3.55259 1.54575e-19)
(5.20619 3.82486 0)
(5.59725 3.87268 -1.86556e-19)
(4.65863 4.13182 -4.20106e-19)
(5.08436 4.20531 -3.17412e-21)
(4.05447 4.435 -4.02448e-19)
(4.51353 4.5436 -4.15542e-19)
(3.38956 4.72075 5.36054e-19)
(3.87863 4.87581 -2.31774e-19)
(2.66396 4.96913 5.152e-19)
(3.16645 5.18454 7.56354e-19)
(1.88504 5.15686 -1.87557e-20)
(2.40472 5.44246 -3.04426e-20)
(1.07227 5.21328 6.47467e-20)
(1.5134 5.62278 -1.32471e-21)
(0.776278 5.58589 7.9018e-20)
(9.98539 0.133724 1.4051e-20)
(9.9879 0.0927446 2.8252e-20)
(9.95689 0.221699 -9.16645e-22)
(9.97265 0.184081 -1.36789e-20)
(9.91474 0.310696 1.66779e-20)
(9.94153 0.275666 1.29095e-20)
(9.85904 0.402496 7.73959e-21)
(9.89417 0.369287 1.90571e-20)
(9.78984 0.49883 -1.68219e-20)
(9.83306 0.466754 1.09559e-20)
(9.70704 0.601294 4.33727e-22)
(9.75923 0.569796 -3.08187e-23)
(9.61038 0.711316 7.81496e-21)
(9.67244 0.679978 7.80585e-21)
(9.49943 0.830153 -1.62552e-20)
(9.57216 0.798702 1.04967e-22)
(9.37367 0.958876 -2.43535e-20)
(9.45787 0.927182 -8.23578e-21)
(9.23248 1.09837 -3.4315e-20)
(9.32906 1.06643 1.6405e-20)
(9.07522 1.24936 -7.92102e-21)
(9.18517 1.21728 -3.40036e-20)
(8.90118 1.41253 8.02976e-21)
(9.02557 1.38046 1.71854e-22)
(8.70956 1.58851 -1.8441e-20)
(8.84955 1.55664 4.42506e-20)
(8.4995 1.77804 3.59165e-22)
(8.65637 1.74656 -4.53824e-20)
(8.26994 1.982 1.94175e-20)
(8.44513 1.95111 1.50246e-22)
(8.0196 2.20139 -9.53591e-20)
(8.21473 2.17134 -9.29571e-21)
(7.74686 2.43738 -6.04359e-20)
(7.96378 2.40852 -1.03852e-19)
(7.44964 2.69123 4.11974e-20)
(7.6905 2.66412 -9.48387e-21)
(7.12521 2.96418 2.25927e-20)
(7.39252 2.9397 8.25369e-20)
(6.77007 3.25724 2.2072e-20)
(7.0667 3.23688 9.72565e-20)
(6.37968 3.57093 2.09511e-19)
(6.70892 3.55703 -1.80858e-19)
(5.94829 3.9048 1.61597e-20)
(6.31372 3.901 2.85132e-19)
(5.4687 4.25677 -1.87683e-19)
(5.87402 4.26854 -1.98356e-19)
(4.93226 4.62203 -3.13883e-21)
(5.38079 4.65745 1.14111e-20)
(4.32921 4.99151 -2.43087e-19)
(4.82247 5.06221 -4.89525e-20)
(3.6498 5.35004 7.04518e-23)
(4.1874 5.47168 -2.14633e-19)
(2.8874 5.67329 2.01103e-19)
(3.45483 5.86672 2.32776e-19)
(2.04322 5.92939 -1.2551e-20)
(2.64142 6.21436 1.6297e-19)
(1.13501 6.02129 1.3473e-20)
(1.65829 6.47433 -1.00055e-19)
(0.816869 6.46354 -3.92009e-19)
(9.98609 0.144064 -1.18973e-24)
(9.9882 0.0994402 7.33622e-24)
(9.95902 0.239003 4.83762e-22)
(9.97399 0.197441 1.42027e-20)
(9.91915 0.335203 1.53666e-20)
(9.94478 0.295854 -2.01077e-22)
(9.86662 0.434513 2.2173e-20)
(9.90023 0.396566 -1.36092e-20)
(9.80149 0.538731 2.76091e-20)
(9.84286 0.50144 4.68764e-21)
(9.7237 0.649548 7.43856e-21)
(9.77372 0.612279 5.6574e-21)
(9.63304 0.768498 0)
(9.69261 0.73075 3.74951e-21)
(9.52915 0.896938 8.02063e-21)
(9.59905 0.858353 -9.20548e-23)
(9.41159 1.03602 3.28253e-20)
(9.49262 0.996388 4.17641e-23)
(9.27984 1.18671 1.60968e-20)
(9.37291 1.14594 2.48052e-20)
(9.13336 1.34982 -2.54924e-20)
(9.23944 1.30792 -8.19645e-21)
(8.97152 1.52608 3.69306e-20)
(9.09171 1.4831 -2.56248e-20)
(8.79366 1.71628 1.6223e-20)
(8.92914 1.67228 6.16244e-20)
(8.599 1.92129 -4.50389e-20)
(8.75109 1.8763 -3.59541e-20)
(8.3866 2.14218 -2.86748e-20)
(8.5568 2.0962 -9.40728e-21)
(8.15526 2.38026 -1.89207e-20)
(8.34532 2.3333 3.63473e-20)
(7.90342 2.6371 -5.1793e-20)
(8.11538 2.58918 3.85212e-20)
(7.62901 2.91449 3.29186e-20)
(7.86531 2.86578 -1.3747e-19)
(7.32925 3.21438 1.57385e-19)
(7.59282 3.16533 8.25433e-20)
(7.00039 3.53876 -1.08882e-19)
(7.29479 3.49029 1.4555e-19)
(6.63741 3.88937 -9.99127e-20)
(6.96692 3.84323 -2.57133e-19)
(6.23358 4.26734 6.51813e-20)
(6.60333 4.22659 8.81772e-20)
(5.77996 4.67248 3.10157e-21)
(6.19592 4.64221 -6.45754e-20)
(5.26491 5.10215 -3.5092e-20)
(5.73369 5.0906 4.64428e-20)
(4.67371 5.5493 -2.23169e-20)
(5.20141 5.56948 3.6851e-20)
(3.98884 5.99954 2.33795e-20)
(4.58084 6.07114 4.33932e-21)
(3.19248 6.42608 1.93876e-19)
(3.84064 6.57835 -2.73738e-19)
(2.27244 6.78779 7.12843e-20)
(2.97946 7.05551 3.81309e-19)
(1.23656 6.95466 -5.09365e-19)
(1.88523 7.44755 2.82357e-19)
(0.894886 7.51612 -7.93319e-19)
(9.98689 0.153843 1.43882e-20)
(9.98854 0.10575 -2.77999e-20)
(9.96144 0.255322 1.33354e-20)
(9.97548 0.210006 3.89695e-23)
(9.92404 0.358246 -2.93445e-20)
(9.94835 0.314785 -1.35756e-20)
(9.87492 0.464545 -3.08633e-20)
(9.90683 0.422076 -1.57558e-20)
(9.81415 0.576085 -1.72513e-20)
(9.85345 0.533803 -2.98597e-20)
(9.74171 0.694639 1.94466e-21)
(9.78929 0.651838 -1.8749e-21)
(9.65745 0.821835 3.60986e-21)
(9.71419 0.777933 2.14426e-23)
(9.56109 0.959113 -8.06899e-21)
(9.62776 0.913674 3.66123e-21)
(9.45229 1.1077 -7.6741e-21)
(9.52967 1.06043 -7.78862e-21)
(9.33064 1.26863 1.06621e-22)
(9.41961 1.21935 1.57777e-20)
(9.19569 1.44277 -8.54293e-21)
(9.29722 1.3914 0)
(9.04697 1.63094 1.30888e-22)
(9.16214 1.57742 -8.43982e-21)
(8.88394 1.83401 8.26641e-21)
(9.01392 1.77825 8.36815e-21)
(8.70598 2.05299 0)
(8.8521 1.99487 0)
(8.51231 2.28917 5.61658e-20)
(8.6761 2.22846 0)
(8.3019 2.54411 9.3826e-20)
(8.48516 2.48054 5.09122e-20)
(8.07338 2.8198 -4.9228e-20)
(8.27827 2.75303 3.85235e-20)
(7.82485 3.1186 -8.52632e-20)
(8.054 3.04831 -8.40354e-20)
(7.5537 3.44323 7.14509e-20)
(7.81036 3.36926 3.73683e-20)
(7.25625 3.79677 -7.33515e-21)
(7.54452 3.71927 -4.77085e-21)
(6.92737 4.18249 -6.50764e-20)
(7.25243 4.10222 -3.82561e-20)
(6.55988 4.60362 -4.33413e-20)
(6.92833 4.52243 1.95657e-20)
(6.14366 5.06284 -1.99548e-20)
(6.5639 4.98448 -8.09231e-20)
(5.66453 5.56135 1.18303e-19)
(6.14713 5.49279 -6.68908e-21)
(5.10275 6.09692 6.30964e-20)
(5.66014 6.05062 4.74484e-20)
(4.43142 6.66033 -2.9622e-19)
(5.0785 6.65784 -2.14247e-20)
(3.61622 7.22785 -7.81704e-20)
(4.35843 7.30615 -2.6738e-19)
(2.61931 7.75269 5.90441e-19)
(3.47205 7.96692 2.23066e-19)
(1.42022 8.06223 -2.23818e-21)
(2.25823 8.57576 3.99985e-19)
(1.05468 8.81368 2.26122e-21)
(9.98777 0.163 -4.18011e-20)
(9.9889 0.111635 1.36504e-20)
(9.96407 0.270568 -2.70438e-20)
(9.97709 0.221705 -1.39928e-20)
(9.92934 0.379718 -1.42821e-23)
(9.9522 0.332367 4.39438e-22)
(9.88383 0.492463 -1.49293e-20)
(9.91389 0.445707 -6.62605e-22)
(9.82767 0.610733 -1.41341e-20)
(9.8647 0.56371 1.07262e-21)
(9.76087 0.736374 -3.77442e-21)
(9.80576 0.688311 -1.52099e-20)
(9.68336 0.871091 1.18301e-22)
(9.73697 0.821333 -6.01652e-23)
(9.59494 1.0164 3.80037e-21)
(9.65801 0.96443 6.16244e-23)
(9.49538 1.17358 1.59518e-20)
(9.56865 1.11903 9.11253e-23)
(9.38437 1.34371 1.5477e-20)
(9.46871 1.28633 7.84055e-21)
(9.26162 1.52772 0)
(9.35795 1.46732 7.75535e-21)
(9.1268 1.72649 0)
(9.23615 1.6629 -1.59662e-20)
(8.97953 1.94095 0)
(9.10306 1.87396 -1.92158e-22)
(8.81939 2.17224 0)
(8.95839 2.10154 3.28389e-20)
(8.64583 2.42179 -4.63998e-21)
(8.8018 2.34694 -2.07126e-20)
(8.45808 2.69146 -4.52985e-21)
(8.6328 2.61186 2.51771e-20)
(8.25508 2.98356 2.27909e-21)
(8.45072 2.89849 -3.31333e-20)
(8.0353 3.30101 4.00389e-20)
(8.25455 3.20961 4.23202e-23)
(7.79653 3.6473 -3.9342e-20)
(8.04278 3.54868 3.52186e-20)
(7.53556 4.02663 -3.60641e-20)
(7.81322 3.91995 -9.30741e-20)
(7.24774 4.44394 4.70662e-20)
(7.56255 4.3286 4.68695e-20)
(6.92622 4.90489 -1.91792e-20)
(7.28591 4.7809 1.05879e-21)
(6.56087 5.41585 -6.68174e-20)
(6.9759 5.28444 -2.78996e-20)
(6.13648 5.98357 -7.6884e-20)
(6.62133 5.84841 2.94351e-20)
(5.62993 6.61413 -3.78495e-20)
(6.20431 6.48371 6.34286e-20)
(5.00566 7.31027 4.47538e-21)
(5.69776 7.20259 -3.56543e-20)
(4.20918 8.06364 4.01006e-20)
(5.04865 8.01642 2.79589e-19)
(3.15952 8.83953 3.48412e-20)
(4.1988 8.92584 -2.39529e-19)
(1.75805 9.42509 4.10797e-19)
(2.89629 9.89446 0)
(1.3947 10.526 8.00292e-19)
(9.98872 0.171487 4.11123e-20)
(9.98929 0.117064 1.33583e-20)
(9.96688 0.284668 1.36725e-20)
(9.97879 0.232482 6.92183e-22)
(9.93496 0.399528 -2.22551e-22)
(9.95625 0.348524 1.40998e-20)
(9.89324 0.518157 1.536e-20)
(9.9213 0.467367 -2.1827e-22)
(9.84189 0.642544 -2.06939e-22)
(9.87649 0.591052 2.88857e-20)
(9.78098 0.774596 -1.13075e-20)
(9.82297 0.721566 -1.83178e-21)
(9.71051 0.916081 -1.152e-22)
(9.76072 0.860789 4.56313e-21)
(9.63036 1.06857 -3.64673e-21)
(9.68951 1.01043 -7.35111e-21)
(9.54042 1.23339 -7.92411e-21)
(9.6092 1.17196 7.39154e-21)
(9.44053 1.41165 1.17179e-22)
(9.51974 1.3466 -1.91177e-20)
(9.3305 1.6043 -8.5006e-21)
(9.42104 1.53536 1.54029e-20)
(9.2102 1.81227 -1.59701e-20)
(9.31304 1.73916 -3.14065e-20)
(9.07945 2.03653 3.30437e-20)
(9.19566 1.95891 -1.20092e-20)
(8.93805 2.27829 1.14841e-20)
(9.06885 2.19569 4.8633e-20)
(8.78573 2.53912 9.65855e-21)
(8.93254 2.45088 -1.6644e-20)
(8.62208 2.82106 -4.11143e-21)
(8.78658 2.72628 2.97641e-20)
(8.44644 3.12673 -3.49733e-20)
(8.63071 3.02428 -3.41755e-20)
(8.25784 3.45946 -4.36043e-21)
(8.46446 3.34794 -1.66993e-20)
(8.05476 3.82343 -2.00141e-20)
(8.28702 3.70116 1.64841e-20)
(7.83487 4.22385 -8.52093e-21)
(8.09712 4.08888 -9.43271e-21)
(7.59464 4.66717 3.08953e-22)
(7.89271 4.51731 4.53718e-21)
(7.32864 5.16153 -8.01368e-21)
(7.6706 4.9944 2.81796e-20)
(7.02844 5.7172 6.89791e-20)
(7.42577 5.53047 -3.15283e-20)
(6.68061 6.34746 1.70071e-19)
(7.15026 6.13931 8.13485e-20)
(6.263 7.0696 6.4414e-20)
(6.83068 6.84 4.21385e-20)
(5.73756 7.90616 2.43385e-19)
(6.44549 7.66012 -6.4859e-20)
(5.0353 8.88472 -7.38677e-21)
(5.94756 8.64143 2.53503e-19)
(4.02212 10.0356 -2.71436e-19)
(5.27382 9.84962 -4.16026e-19)
(2.42612 11.2148 3.95221e-19)
(4.07317 11.3931 1.3787e-19)
(2.20413 13.0727 5.97032e-19)
(9.98971 0.179264 -2.72173e-20)
(9.9897 0.122016 -1.47365e-20)
(9.96983 0.297562 1.28917e-21)
(9.98056 0.24229 6.31928e-22)
(9.94085 0.417596 1.3924e-20)
(9.96047 0.363196 -1.6061e-22)
(9.90306 0.541524 1.3672e-20)
(9.92901 0.486983 -1.12635e-20)
(9.85669 0.671384 2.68768e-20)
(9.88871 0.615739 -1.32402e-20)
(9.80186 0.809134 1.41173e-20)
(9.84079 0.751495 4.77337e-22)
(9.73864 0.956591 -2.81996e-21)
(9.78527 0.896174 7.1423e-21)
(9.66703 1.11536 3.86841e-21)
(9.72205 1.05152 -1.0034e-20)
(9.58701 1.2868 -4.12625e-21)
(9.65108 1.21903 1.08935e-20)
(9.49856 1.47204 -3.40969e-21)
(9.57244 1.39994 -8.03844e-21)
(9.40167 1.67204 -8.07269e-21)
(9.48619 1.59527 7.88878e-21)
(9.29636 1.88771 -2.72152e-20)
(9.39243 1.8059 -2.63523e-20)
(9.18268 2.12007 4.30627e-21)
(9.2913 2.03275 -1.56283e-20)
(9.0607 2.37034 1.97199e-20)
(9.183 2.27689 2.33464e-20)
(8.93045 2.64015 4.01923e-21)
(9.06774 2.53971 9.70109e-21)
(8.79194 2.93166 -1.05307e-21)
(8.94576 2.82307 3.13292e-23)
(8.64504 3.24767 -1.56923e-20)
(8.81727 3.12942 -8.48134e-21)
(8.48945 3.5918 4.52985e-21)
(8.68244 3.46196 -1.66606e-20)
(8.32457 3.96868 2.67559e-20)
(8.54131 3.82483 1.72056e-20)
(8.14934 4.38421 3.78572e-21)
(8.39377 4.22332 1.02136e-20)
(7.96197 4.846 3.266e-20)
(8.23942 4.66426 -8.46433e-21)
(7.75957 5.364 3.94693e-21)
(8.07747 5.15654 -5.3842e-21)
(7.53737 5.95169 -1.77209e-20)
(7.90651 5.71211 9.60991e-21)
(7.28743 6.628 -4.675e-20)
(7.72429 6.34764 -2.27959e-20)
(6.99591 7.42104 -8.81211e-20)
(7.52698 7.08765 -5.66892e-20)
(6.63696 8.37561 -5.05622e-20)
(7.31015 7.97108 1.50217e-20)
(6.15698 9.5714 -1.64256e-19)
(7.06265 9.06623 -1.81571e-21)
(5.42276 11.1915 8.70288e-21)
(6.81582 10.5156 -1.43728e-19)
(3.98111 13.7857 3.67393e-19)
(6.58446 12.7384 1.40749e-19)
(5.77751 17.4314 5.09914e-19)
(-0.55234 0.338804 6.23415e-19)
(-0.14237 0.524448 -4.67574e-19)
(-1.21008 0.378712 5.25905e-20)
(-0.984651 0.60451 4.73527e-19)
(-1.96509 0.404674 -3.27106e-19)
(-1.62193 0.676443 1.79634e-19)
(-2.78196 0.412093 -1.87869e-19)
(-2.46935 0.716778 -5.40904e-19)
(-3.63969 0.405862 -1.98414e-19)
(-3.32724 0.738745 -3.62803e-19)
(-4.50647 0.383987 1.58158e-19)
(-4.21192 0.733041 -3.3897e-19)
(-5.34804 0.347298 1.68314e-19)
(-5.08433 0.69863 1.55679e-19)
(-6.12666 0.296502 -7.92134e-20)
(-5.90814 0.634075 2.25696e-19)
(-6.8024 0.232954 1.38383e-20)
(-6.64332 0.539465 7.29975e-20)
(-7.33537 0.158588 7.85156e-20)
(-7.24857 0.416837 7.88033e-20)
(-7.68857 0.0757836 -1.08582e-21)
(-7.684 0.270451 -1.10585e-19)
(-7.83067 -0.0130613 3.46759e-20)
(-7.91494 0.106443 7.0876e-20)
(-7.74081 -0.105468 2.98572e-22)
(-7.91673 -0.0659918 -7.00158e-20)
(-7.40875 -0.196056 -1.66236e-20)
(-7.67581 -0.238284 -2.55822e-21)
(-6.84466 -0.277167 -5.94832e-21)
(-7.19619 -0.395772 -2.25304e-20)
(-6.07643 -0.342771 1.32883e-21)
(-6.50017 -0.526938 -6.01667e-21)
(-5.14446 -0.389253 4.75855e-21)
(-5.6245 -0.624882 8.76692e-21)
(-4.09598 -0.415418 -2.77815e-21)
(-4.61507 -0.687152 -3.93967e-21)
(-2.97993 -0.422446 5.42661e-23)
(-3.52023 -0.714895 3.54008e-21)
(-1.84063 -0.412591 2.31009e-22)
(-2.37938 -0.713272 -6.64988e-21)
(-0.715386 -0.38793 1.79549e-22)
(-1.2357 -0.688519 1.96869e-21)
(0.363627 -0.353728 0)
(-0.0898649 -0.645278 1.13337e-21)
(1.37707 -0.316309 0)
(0.940597 -0.592357 -6.27129e-23)
(2.31186 -0.279359 0)
(1.92767 -0.534039 -2.10034e-22)
(3.16664 -0.244749 0)
(2.83918 -0.477319 -1.49837e-22)
(3.94186 -0.212883 0)
(3.67011 -0.423171 0)
(4.64031 -0.184229 1.85436e-24)
(4.42248 -0.372721 -1.61926e-23)
(5.26741 -0.159286 7.55418e-25)
(5.10062 -0.32718 -3.5283e-25)
(5.8315 -0.141203 -6.07585e-25)
(5.70878 -0.287768 -9.54346e-25)
(6.37912 -0.264277 -8.0836e-25)
(-0.589569 0.883711 -6.2644e-19)
(-0.15686 1.13756 3.3102e-18)
(-1.32208 0.982 6.08164e-19)
(-1.02748 1.28572 -1.51698e-18)
(-2.12007 1.05597 -2.46759e-20)
(-1.7232 1.39803 8.43463e-19)
(-2.97315 1.09911 -7.18084e-19)
(-2.60421 1.4703 2.01507e-18)
(-3.85674 1.10959 -5.04387e-19)
(-3.48766 1.50318 -7.87157e-19)
(-4.74247 1.07996 -3.49097e-19)
(-4.39179 1.48417 -1.56735e-18)
(-5.59625 1.00716 2.10677e-19)
(-5.2772 1.40843 -3.29651e-20)
(-6.38005 0.889729 3.79546e-19)
(-6.10799 1.27271 1.18286e-18)
(-7.05339 0.728875 1.38236e-19)
(-6.84362 1.07689 1.60132e-19)
(-7.5756 0.528866 -1.07842e-19)
(-7.44181 0.824881 -3.09521e-19)
(-7.90899 0.29725 -4.06455e-20)
(-7.86147 0.525256 -1.65684e-19)
(-8.02285 0.0443062 -3.24856e-20)