/*--------------------------------*- C++ -*----------------------------------*\
| =========                 |                                                 |
| \\      /  F ield         | OpenFOAM: The Open Source CFD Toolbox           |
|  \\    /   O peration     | Version:  4.1                                   |
|   \\  /    A nd           | Web:      www.OpenFOAM.org                      |
|    \\/     M anipulation  |                                                 |
\*---------------------------------------------------------------------------*/
FoamFile
{
    version     2.0;
    format      ascii;
    class       pointVectorField;
    location    "0.6";
    object      pointDisplacement;
}
// * * * * * * * * * * * * * * * * * * * * * * * * * * * * * * * * * * * * * //

dimensions      [0 1 0 0 0 0 0];

internalField   nonuniform List<vector> 
5828
(
(0 0 0)
(0.0128452 0 0)
(0.0243675 0 0)
(0.0342562 0 0)
(0.0426462 0 0)
(0.0496679 0 0)
(0.0554391 0 0)
(0.0600645 0 0)
(0.0636363 0 0)
(0.0662365 0 0)
(0.0679373 0 0)
(0.0688021 0 0)
(0.0688865 0 0)
(0.0682406 0 0)
(0.0669103 0 0)
(0.0649382 0 0)
(0.0623656 0 0)
(0.0592339 0 0)
(0.0555863 0 0)
(0.0514697 0 0)
(0.0469373 0 0)
(0.0420502 0 0)
(0.036881 0 0)
(0.0315171 0 0)
(0.026065 0 0)
(0.0206574 0 0)
(0.0154633 0 0)
(0.0107021 0 0)
(0.00667404 0 0)
(0.00386639 0 0)
(-8.91648e-16 0 0)
(0 0 0)
(0.0128531 3.3231e-05 0)
(0.0243842 6.43429e-05 0)
(0.0342818 9.34843e-05 0)
(0.0426813 0.000121675 0)
(0.0497132 0.000149741 0)
(0.0554958 0.000178389 0)
(0.0601341 0.000208257 0)
(0.0637205 0.000239869 0)
(0.0663373 0.000273738 0)
(0.0680572 0.000310441 0)
(0.0689439 0.000350558 0)
(0.0690533 0.000394494 0)
(0.0684358 0.000442676 0)
(0.0671377 0.000495682 0)
(0.0652023 0.000554046 0)
(0.0626711 0.000618272 0)
(0.0595859 0.000688846 0)
(0.0559904 0.000766221 0)
(0.051932 0.000850818 0)
(0.047464 0.000943014 0)
(0.0426483 0.00104316 0)
(0.0375579 0.00115159 0)
(0.0322805 0.00126871 0)
(0.0269234 0.00139516 0)
(0.0216206 0.00153207 0)
(0.0165439 0.00168131 0)
(0.0119202 0.00184509 0)
(0.00805931 0.00202308 0)
(0.00544725 0.00220271 0)
(0.00213725 0.00244222 0)
(0 0 0)
(0.0128804 6.63118e-05 0)
(0.024438 0.000128392 0)
(0.0343626 0.000186534 0)
(0.0427903 0.000242774 0)
(0.0498527 0.000298745 0)
(0.0556693 0.000355855 0)
(0.060346 0.000415398 0)
(0.0639757 0.000478386 0)
(0.0666417 0.000545816 0)
(0.0684182 0.000618856 0)
(0.0693698 0.000698732 0)
(0.0695534 0.000786178 0)
(0.0690202 0.000881977 0)
(0.0678182 0.000987356 0)
(0.0659916 0.00110336 0)
(0.0635836 0.001231 0)
(0.060637 0.00137122 0)
(0.0571968 0.00152492 0)
(0.0533117 0.00169292 0)
(0.0490364 0.00187593 0)
(0.0444339 0.00207456 0)
(0.0395786 0.00228931 0)
(0.0345599 0.00252061 0)
(0.0294861 0.00276891 0)
(0.0244927 0.00303507 0)
(0.0197565 0.00332073 0)
(0.0155206 0.00362803 0)
(0.0121143 0.00395303 0)
(0.0100113 0.00426898 0)
(0.00720425 0.00463111 0)
(0 0 0)
(0.0129265 9.90919e-05 0)
(0.0245288 0.00019185 0)
(0.0344983 0.000278707 0)
(0.0429731 0.000362709 0)
(0.050086 0.000446261 0)
(0.0559589 0.000531447 0)
(0.0606993 0.000620272 0)
(0.0644005 0.00071416 0)
(0.0671478 0.000814515 0)
(0.0690175 0.000923105 0)
(0.0700754 0.00104156 0)
(0.07038 0.0011711 0)
(0.0699853 0.00131312 0)
(0.068941 0.00146933 0)
(0.0672935 0.00164121 0)
(0.0650878 0.00183021 0)
(0.062369 0.00203773 0)
(0.0591844 0.00226509 0)
(0.0555845 0.00251345 0)
(0.0516261 0.00278377 0)
(0.0473744 0.0030768 0)
(0.0429065 0.003393 0)
(0.0383147 0.00373233 0)
(0.0337095 0.00409416 0)
(0.0292264 0.00447729 0)
(0.025039 0.00488023 0)
(0.021395 0.00530054 0)
(0.0186453 0.00572783 0)
(0.0172436 0.00612456 0)
(0.0150621 0.00651826 0)
(0 0 0)
(0.0129912 0.000131417 0)
(0.0246555 0.00025441 0)
(0.0346873 0.000369538 0)
(0.0432276 0.000480867 0)
(0.0504102 0.000591502 0)
(0.056361 0.000704146 0)
(0.0611893 0.000821393 0)
(0.0649882 0.000945135 0)
(0.067847 0.00107731 0)
(0.069845 0.0012201 0)
(0.0710484 0.00137524 0)
(0.0715191 0.00154473 0)
(0.0713147 0.00173077 0)
(0.070487 0.00193525 0)
(0.0690852 0.00216002 0)
(0.067157 0.00240694 0)
(0.0647507 0.0026778 0)
(0.0619164 0.00297424 0)
(0.0587076 0.0032977 0)
(0.0551834 0.00364929 0)
(0.0514113 0.00402973 0)
(0.0474724 0.00443934 0)
(0.0434634 0.00487742 0)
(0.039498 0.00534163 0)
(0.0357121 0.00582776 0)
(0.0322699 0.00632895 0)
(0.029395 0.00683374 0)
(0.0274432 0.00732355 0)
(0.0268532 0.00775473 0)
(0.0253674 0.00813233 0)
(0 0 0)
(0.0130745 0.000163129 0)
(0.0248174 0.000315752 0)
(0.0349284 0.000458537 0)
(0.0435517 0.000596449 0)
(0.0508213 0.000733291 0)
(0.0568686 0.000872419 0)
(0.0618063 0.00101684 0)
(0.0657288 0.00116901 0)
(0.0687288 0.00133148 0)
(0.0708881 0.00150672 0)
(0.0722759 0.00169679 0)
(0.0729572 0.00190423 0)
(0.0729927 0.00213164 0)
(0.0724377 0.0023812 0)
(0.0713449 0.00265513 0)
(0.0697659 0.00295561 0)
(0.0677527 0.00328476 0)
(0.0653592 0.00364448 0)
(0.0626425 0.00403634 0)
(0.0596643 0.00446141 0)
(0.0564925 0.00492015 0)
(0.0532123 0.00541277 0)
(0.049927 0.00593787 0)
(0.0467518 0.00649098 0)
(0.0438206 0.00706435 0)
(0.0412887 0.00764551 0)
(0.0393418 0.00821487 0)
(0.0382927 0.00874448 0)
(0.0385527 0.00918586 0)
(0.0376768 0.00950896 0)
(0 0 0)
(0.0131765 0.000194016 0)
(0.0250129 0.000375406 0)
(0.0352161 0.000544948 0)
(0.0439368 0.000708404 0)
(0.051311 0.000870336 0)
(0.0574741 0.00103476 0)
(0.062542 0.00120502 0)
(0.0666123 0.00138411 0)
(0.0697809 0.00157508 0)
(0.0721325 0.00178072 0)
(0.0737403 0.00200357 0)
(0.0746724 0.00224637 0)
(0.0749928 0.00251187 0)
(0.0747612 0.00280263 0)
(0.074035 0.00312118 0)
(0.0728703 0.00346995 0)
(0.0713236 0.00385129 0)
(0.069454 0.00426733 0)
(0.0673234 0.00471969 0)
(0.0649979 0.00520927 0)
(0.0625462 0.00573636 0)
(0.0600495 0.00630051 0)
(0.057615 0.00689924 0)
(0.0553634 0.00752625 0)
(0.0534218 0.00817052 0)
(0.0519308 0.00881525 0)
(0.0510422 0.0094367 0)
(0.0509839 0.01 0)
(0.0521119 0.0104533 0)
(0.0517632 0.0107816 0)
(0 0 0)
(0.0132905 0.000223747 0)
(0.0252364 0.00043284 0)
(0.0355462 0.000628066 0)
(0.0443782 0.000815942 0)
(0.0518735 0.00100178 0)
(0.05817 0.00119013 0)
(0.0633869 0.00138464 0)
(0.0676268 0.00158885 0)
(0.0709887 0.00180625 0)
(0.0735601 0.00203985 0)
(0.0754182 0.00229251 0)
(0.0766352 0.00256715 0)
(0.077279 0.00286669 0)
(0.0774143 0.00319393 0)
(0.0771038 0.00355158 0)
(0.0764088 0.00394225 0)
(0.0753909 0.00436841 0)
(0.0741155 0.00483238 0)
(0.0726516 0.00533589 0)
(0.0710712 0.00587975 0)
(0.0694506 0.00646404 0)
(0.0678623 0.00708709 0)
(0.0663993 0.00774486 0)
(0.0651874 0.00842977 0)
(0.064353 0.00912845 0)
(0.0640134 0.00982113 0)
(0.0642823 0.0104822 0)
(0.0652993 0.0110756 0)
(0.0673462 0.0115484 0)
(0.067629 0.0119839 0)
(0 0 0)
(0.0134159 0.0002522 0)
(0.0254862 0.000487801 0)
(0.0359151 0.000707439 0)
(0.0448704 0.00091842 0)
(0.0525021 0.00112684 0)
(0.0589476 0.00133762 0)
(0.0643309 0.00155476 0)
(0.0687611 0.00178226 0)
(0.0723391 0.00202384 0)
(0.0751548 0.00228271 0)
(0.0772901 0.00256195 0)
(0.0788218 0.00286461 0)
(0.0798224 0.00319372 0)
(0.080362 0.00355219 0)
(0.0805091 0.00394281 0)
(0.0803307 0.00436819 0)
(0.0798925 0.00483077 0)
(0.0792683 0.00533309 0)
(0.0785348 0.00587693 0)
(0.0777704 0.00646295 0)
(0.0770601 0.00709072 0)
(0.0764813 0.00775759 0)
(0.076107 0.00845816 0)
(0.0760409 0.00918346 0)
(0.0764117 0.00991839 0)
(0.0773173 0.0106405 0)
(0.0788214 0.0113219 0)
(0.0809886 0.011927 0)
(0.0840091 0.0123997 0)
(0.0851546 0.0129118 0)
(0 0 0)
(0.0135541 0.00027927 0)
(0.0257577 0.000539957 0)
(0.0363158 0.000782606 0)
(0.0454076 0.00101539 0)
(0.0531903 0.00124494 0)
(0.0597993 0.00147647 0)
(0.0653645 0.00171448 0)
(0.0700018 0.00196323 0)
(0.0738136 0.0022265 0)
(0.0768937 0.00250769 0)
(0.0793283 0.00281001 0)
(0.0811987 0.00313657 0)
(0.0825827 0.00349041 0)
(0.0835558 0.00387446 0)
(0.0841931 0.00429146 0)
(0.0845685 0.00474384 0)
(0.0847545 0.00523402 0)
(0.0848291 0.00576447 0)
(0.0848725 0.0063365 0)
(0.0849728 0.00695064 0)
(0.0852249 0.00760611 0)
(0.0857136 0.00829933 0)
(0.0865111 0.00902399 0)
(0.0876865 0.00977005 0)
(0.0893487 0.0105209 0)
(0.0915763 0.0112508 0)
(0.0943741 0.0119268 0)
(0.0977309 0.0125093 0)
(0.101702 0.0129338 0)
(0.10372 0.0134 0)
(0 0 0)
(0.0137034 0.000304786 0)
(0.0260484 0.000589032 0)
(0.0367461 0.000853251 0)
(0.0459854 0.0011064 0)
(0.0539282 0.00135542 0)
(0.0607122 0.00160584 0)
(0.0664726 0.00186265 0)
(0.0713297 0.00213023 0)
(0.0753891 0.00241243 0)
(0.0787482 0.00271271 0)
(0.081498 0.00303433 0)
(0.083724 0.00338036 0)
(0.0855089 0.00375373 0)
(0.086934 0.00415728 0)
(0.0880819 0.00459366 0)
(0.0890346 0.00506509 0)
(0.0898742 0.00557376 0)
(0.0906798 0.00612126 0)
(0.0915329 0.00670837 0)
(0.0925288 0.00733576 0)
(0.0937731 0.00800198 0)
(0.095359 0.00870252 0)
(0.0973605 0.00943032 0)
(0.0998363 0.0101753 0)
(0.10286 0.0109201 0)
(0.106463 0.0116351 0)
(0.110585 0.0122816 0)
(0.115117 0.0128108 0)
(0.119915 0.0131501 0)
(0.122659 0.0134527 0)
(0 0 0)
(0.0138633 0.000328672 0)
(0.0263558 0.000634807 0)
(0.0372005 0.000919017 0)
(0.0465958 0.0011909 0)
(0.0547075 0.00145774 0)
(0.0616774 0.00172533 0)
(0.0676438 0.00199885 0)
(0.072731 0.00228281 0)
(0.0770484 0.00258108 0)
(0.0806978 0.00289716 0)
(0.0837738 0.0032342 0)
(0.0863666 0.00359513 0)
(0.0885632 0.00398268 0)
(0.0904493 0.00439945 0)
(0.0921164 0.004848 0)
(0.0936542 0.00533017 0)
(0.0951498 0.00584731 0)
(0.0966888 0.00640011 0)
(0.0983621 0.00698885 0)
(0.100264 0.00761378 0)
(0.102504 0.00827284 0)
(0.105188 0.00896052 0)
(0.108387 0.00966903 0)
(0.112167 0.0103894 0)
(0.11657 0.0111045 0)
(0.121562 0.0117841 0)
(0.127007 0.0123877 0)
(0.13267 0.0128611 0)
(0.138152 0.0131273 0)
(0.141337 0.013286 0)
(0 0 0)
(0.0140273 0.000350733 0)
(0.0266735 0.000677081 0)
(0.0376743 0.000979749 0)
(0.0472355 0.0012688 0)
(0.0555243 0.00155179 0)
(0.0626857 0.00183459 0)
(0.0688639 0.00212259 0)
(0.074188 0.00242042 0)
(0.0787702 0.00273188 0)
(0.082716 0.00306041 0)
(0.086124 0.00340899 0)
(0.0890883 0.00378029 0)
(0.0916997 0.00417664 0)
(0.0940497 0.00460048 0)
(0.0962366 0.00505412 0)
(0.0983541 0.00553852 0)
(0.100491 0.00605394 0)
(0.102742 0.00660044 0)
(0.105208 0.00717732 0)
(0.107989 0.00778382 0)
(0.111196 0.00841726 0)
(0.114931 0.00907087 0)
(0.11927 0.00973636 0)
(0.124288 0.010406 0)
(0.130004 0.0110655 0)
(0.136333 0.0116899 0)
(0.143072 0.0122475 0)
(0.149846 0.0126929 0)
(0.155994 0.0129452 0)
(0.159716 0.0131241 0)
(0 0 0)
(0.0141915 0.00037089 0)
(0.0270012 0.000715879 0)
(0.0381656 0.00103543 0)
(0.0478962 0.00133992 0)
(0.0563647 0.00163702 0)
(0.0637205 0.00193286 0)
(0.0701149 0.00223309 0)
(0.075679 0.00254223 0)
(0.0805276 0.00286394 0)
(0.0847706 0.00320156 0)
(0.0885099 0.00355782 0)
(0.091843 0.00393504 0)
(0.0948643 0.00433512 0)
(0.0976749 0.0047603 0)
(0.100374 0.00521224 0)
(0.103052 0.00569064 0)
(0.105802 0.00619479 0)
(0.108727 0.00672384 0)
(0.111929 0.00727588 0)
(0.115522 0.00784884 0)
(0.119614 0.00843854 0)
(0.124293 0.00903677 0)
(0.129642 0.00963457 0)
(0.135739 0.0102247 0)
(0.142594 0.0107969 0)
(0.150101 0.0113369 0)
(0.158031 0.0118343 0)
(0.165933 0.0122768 0)
(0.172913 0.0125859 0)
(0.177954 0.0129548 0)
(0 0 0)
(0.0143578 0.000389222 0)
(0.0273335 0.000751089 0)
(0.0386666 0.00108583 0)
(0.0485685 0.00140394 0)
(0.0572163 0.0017132 0)
(0.0647713 0.00202014 0)
(0.0713856 0.00233043 0)
(0.077189 0.00264827 0)
(0.0823022 0.00297733 0)
(0.0868394 0.00332077 0)
(0.0909046 0.00368101 0)
(0.0945981 0.0040599 0)
(0.0980197 0.00445906 0)
(0.101276 0.00488023 0)
(0.104462 0.00532375 0)
(0.107663 0.00578833 0)
(0.110981 0.00627247 0)
(0.114518 0.00677402 0)
(0.118378 0.00728979 0)
(0.12268 0.00781573 0)
(0.127524 0.00834548 0)
(0.132981 0.0088691 0)
(0.139131 0.00937581 0)
(0.146048 0.00985658 0)
(0.153734 0.0103018 0)
(0.16208 0.0107038 0)
(0.170881 0.0110724 0)
(0.179736 0.0114528 0)
(0.187733 0.011844 0)
(0.195964 0.0127668 0)
(0 0 0)
(0.0145251 0.000405775 0)
(0.0276661 0.000782785 0)
(0.0391721 0.00113113 0)
(0.0492517 0.00146129 0)
(0.0580832 0.00178107 0)
(0.0658399 0.00209729 0)
(0.0726747 0.00241543 0)
(0.078718 0.00273957 0)
(0.0840957 0.00307332 0)
(0.0889236 0.00341952 0)
(0.0933082 0.00378023 0)
(0.0973523 0.00415688 0)
(0.101161 0.00455067 0)
(0.104836 0.00496232 0)
(0.108467 0.005391 0)
(0.112147 0.00583479 0)
(0.115974 0.00629113 0)
(0.120048 0.00675636 0)
(0.12447 0.00722598 0)
(0.129356 0.00769379 0)
(0.134783 0.00815061 0)
(0.140807 0.00858433 0)
(0.147492 0.00898103 0)
(0.154887 0.00932625 0)
(0.162962 0.00960372 0)
(0.171584 0.00979264 0)
(0.180541 0.00986933 0)
(0.189447 0.00980225 0)
(0.197634 0.00943722 0)
(0.213737 0.0127066 0)
(0 0 0)
(0.0128452 0 0)
(0.0243675 0 0)
(0.0342562 0 0)
(0.0426462 0 0)
(0.0496679 0 0)
(0.0554391 0 0)
(0.0600645 0 0)
(0.0636363 0 0)
(0.0662365 0 0)
(0.0679373 0 0)
(0.0688021 0 0)
(0.0688865 0 0)
(0.0682406 0 0)
(0.0669103 0 0)
(0.0649382 0 0)
(0.0623656 0 0)
(0.0592339 0 0)
(0.0555863 0 0)
(0.0514697 0 0)
(0.0469373 0 0)
(0.0420502 0 0)
(0.036881 0 0)
(0.0315171 0 0)
(0.026065 0 0)
(0.0206574 0 0)
(0.0154633 0 0)
(0.0107021 0 0)
(0.00667404 0 0)
(0.00386639 0 0)
(-2.60209e-17 0 0)
(0 0 0)
(0.0128531 3.3231e-05 0)
(0.0243842 6.43429e-05 0)
(0.0342818 9.34843e-05 0)
(0.0426813 0.000121675 0)
(0.0497132 0.000149741 0)
(0.0554958 0.000178389 0)
(0.0601341 0.000208257 0)
(0.0637205 0.000239869 0)
(0.0663373 0.000273738 0)
(0.0680572 0.000310441 0)
(0.0689439 0.000350558 0)
(0.0690533 0.000394494 0)
(0.0684358 0.000442676 0)
(0.0671377 0.000495682 0)
(0.0652023 0.000554046 0)
(0.0626711 0.000618272 0)
(0.0595859 0.000688846 0)
(0.0559904 0.000766221 0)
(0.051932 0.000850818 0)
(0.047464 0.000943014 0)
(0.0426483 0.00104316 0)
(0.0375579 0.00115159 0)
(0.0322805 0.00126871 0)
(0.0269234 0.00139516 0)
(0.0216206 0.00153207 0)
(0.0165439 0.00168131 0)
(0.0119202 0.00184509 0)
(0.00805931 0.00202308 0)
(0.00544725 0.00220271 0)
(0.00213725 0.00244222 0)
(0 0 0)
(0.0128804 6.63118e-05 0)
(0.024438 0.000128392 0)
(0.0343626 0.000186534 0)
(0.0427903 0.000242774 0)
(0.0498527 0.000298745 0)
(0.0556693 0.000355855 0)
(0.060346 0.000415398 0)
(0.0639757 0.000478386 0)
(0.0666417 0.000545816 0)
(0.0684182 0.000618856 0)
(0.0693698 0.000698732 0)
(0.0695534 0.000786178 0)
(0.0690202 0.000881977 0)
(0.0678182 0.000987356 0)
(0.0659916 0.00110336 0)
(0.0635836 0.001231 0)
(0.060637 0.00137122 0)
(0.0571968 0.00152492 0)
(0.0533117 0.00169292 0)
(0.0490364 0.00187593 0)
(0.0444339 0.00207456 0)
(0.0395786 0.00228931 0)
(0.0345599 0.00252061 0)
(0.0294861 0.00276891 0)
(0.0244927 0.00303507 0)
(0.0197565 0.00332073 0)
(0.0155206 0.00362803 0)
(0.0121143 0.00395303 0)
(0.0100113 0.00426898 0)
(0.00720425 0.00463111 0)
(0 0 0)
(0.0129265 9.90919e-05 0)
(0.0245288 0.00019185 0)
(0.0344983 0.000278707 0)
(0.0429731 0.000362709 0)
(0.050086 0.000446261 0)
(0.0559589 0.000531447 0)
(0.0606993 0.000620272 0)
(0.0644005 0.00071416 0)
(0.0671478 0.000814515 0)
(0.0690175 0.000923105 0)
(0.0700754 0.00104156 0)
(0.07038 0.0011711 0)
(0.0699853 0.00131312 0)
(0.068941 0.00146933 0)
(0.0672935 0.00164121 0)
(0.0650878 0.00183021 0)
(0.062369 0.00203773 0)
(0.0591844 0.00226509 0)
(0.0555845 0.00251345 0)
(0.0516261 0.00278377 0)
(0.0473744 0.0030768 0)
(0.0429065 0.003393 0)
(0.0383147 0.00373233 0)
(0.0337095 0.00409416 0)
(0.0292264 0.00447729 0)
(0.025039 0.00488023 0)
(0.021395 0.00530054 0)
(0.0186453 0.00572783 0)
(0.0172436 0.00612456 0)
(0.0150621 0.00651826 0)
(0 0 0)
(0.0129912 0.000131417 0)
(0.0246555 0.00025441 0)
(0.0346873 0.000369538 0)
(0.0432276 0.000480867 0)
(0.0504102 0.000591502 0)
(0.056361 0.000704146 0)
(0.0611893 0.000821393 0)
(0.0649882 0.000945135 0)
(0.067847 0.00107731 0)
(0.069845 0.0012201 0)
(0.0710484 0.00137524 0)
(0.0715191 0.00154473 0)
(0.0713147 0.00173077 0)
(0.070487 0.00193525 0)
(0.0690852 0.00216002 0)
(0.067157 0.00240694 0)
(0.0647507 0.0026778 0)
(0.0619164 0.00297424 0)
(0.0587076 0.0032977 0)
(0.0551834 0.00364929 0)
(0.0514113 0.00402973 0)
(0.0474724 0.00443934 0)
(0.0434634 0.00487742 0)
(0.039498 0.00534163 0)
(0.0357121 0.00582776 0)
(0.0322699 0.00632895 0)
(0.029395 0.00683374 0)
(0.0274432 0.00732355 0)
(0.0268532 0.00775473 0)
(0.0253674 0.00813233 0)
(0 0 0)
(0.0130745 0.000163129 0)
(0.0248174 0.000315752 0)
(0.0349284 0.000458537 0)
(0.0435517 0.000596449 0)
(0.0508213 0.000733291 0)
(0.0568686 0.000872419 0)
(0.0618063 0.00101684 0)
(0.0657288 0.00116901 0)
(0.0687288 0.00133148 0)
(0.0708881 0.00150672 0)
(0.0722759 0.00169679 0)
(0.0729572 0.00190423 0)
(0.0729927 0.00213164 0)
(0.0724377 0.0023812 0)
(0.0713449 0.00265513 0)
(0.0697659 0.00295561 0)
(0.0677527 0.00328476 0)
(0.0653592 0.00364448 0)
(0.0626425 0.00403634 0)
(0.0596643 0.00446141 0)
(0.0564925 0.00492015 0)
(0.0532123 0.00541277 0)
(0.049927 0.00593787 0)
(0.0467518 0.00649098 0)
(0.0438206 0.00706435 0)
(0.0412887 0.00764551 0)
(0.0393418 0.00821487 0)
(0.0382927 0.00874448 0)
(0.0385527 0.00918586 0)
(0.0376768 0.00950896 0)
(0 0 0)
(0.0131765 0.000194016 0)
(0.0250129 0.000375406 0)
(0.0352161 0.000544948 0)
(0.0439368 0.000708404 0)
(0.051311 0.000870336 0)
(0.0574741 0.00103476 0)
(0.062542 0.00120502 0)
(0.0666123 0.00138411 0)
(0.0697809 0.00157508 0)
(0.0721325 0.00178072 0)
(0.0737403 0.00200357 0)
(0.0746724 0.00224637 0)
(0.0749928 0.00251187 0)
(0.0747612 0.00280263 0)
(0.074035 0.00312118 0)
(0.0728703 0.00346995 0)
(0.0713236 0.00385129 0)
(0.069454 0.00426733 0)
(0.0673234 0.00471969 0)
(0.0649979 0.00520927 0)
(0.0625462 0.00573636 0)
(0.0600495 0.00630051 0)
(0.057615 0.00689924 0)
(0.0553634 0.00752625 0)
(0.0534218 0.00817052 0)
(0.0519308 0.00881525 0)
(0.0510422 0.0094367 0)
(0.0509839 0.01 0)
(0.0521119 0.0104533 0)
(0.0517632 0.0107816 0)
(0 0 0)
(0.0132905 0.000223747 0)
(0.0252364 0.00043284 0)
(0.0355462 0.000628066 0)
(0.0443782 0.000815942 0)
(0.0518735 0.00100178 0)
(0.05817 0.00119013 0)
(0.0633869 0.00138464 0)
(0.0676268 0.00158885 0)
(0.0709887 0.00180625 0)
(0.0735601 0.00203985 0)
(0.0754182 0.00229251 0)
(0.0766352 0.00256715 0)
(0.077279 0.00286669 0)
(0.0774143 0.00319393 0)
(0.0771038 0.00355158 0)
(0.0764088 0.00394225 0)
(0.0753909 0.00436841 0)
(0.0741155 0.00483238 0)
(0.0726516 0.00533589 0)
(0.0710712 0.00587975 0)
(0.0694506 0.00646404 0)
(0.0678623 0.00708709 0)
(0.0663993 0.00774486 0)
(0.0651874 0.00842977 0)
(0.064353 0.00912845 0)
(0.0640134 0.00982113 0)
(0.0642823 0.0104822 0)
(0.0652993 0.0110756 0)
(0.0673462 0.0115484 0)
(0.067629 0.0119839 0)
(0 0 0)
(0.0134159 0.0002522 0)
(0.0254862 0.000487801 0)
(0.0359151 0.000707439 0)
(0.0448704 0.00091842 0)
(0.0525021 0.00112684 0)
(0.0589476 0.00133762 0)
(0.0643309 0.00155476 0)
(0.0687611 0.00178226 0)
(0.0723391 0.00202384 0)
(0.0751548 0.00228271 0)
(0.0772901 0.00256195 0)
(0.0788218 0.00286461 0)
(0.0798224 0.00319372 0)
(0.080362 0.00355219 0)
(0.0805091 0.00394281 0)
(0.0803307 0.00436819 0)
(0.0798925 0.00483077 0)
(0.0792683 0.00533309 0)
(0.0785348 0.00587693 0)
(0.0777704 0.00646295 0)
(0.0770601 0.00709072 0)
(0.0764813 0.00775759 0)
(0.076107 0.00845816 0)
(0.0760409 0.00918346 0)
(0.0764117 0.00991839 0)
(0.0773173 0.0106405 0)
(0.0788214 0.0113219 0)
(0.0809886 0.011927 0)
(0.0840091 0.0123997 0)
(0.0851546 0.0129118 0)
(0 0 0)
(0.0135541 0.00027927 0)
(0.0257577 0.000539957 0)
(0.0363158 0.000782606 0)
(0.0454076 0.00101539 0)
(0.0531903 0.00124494 0)
(0.0597993 0.00147647 0)
(0.0653645 0.00171448 0)
(0.0700018 0.00196323 0)
(0.0738136 0.0022265 0)
(0.0768937 0.00250769 0)
(0.0793283 0.00281001 0)
(0.0811987 0.00313657 0)
(0.0825827 0.00349041 0)
(0.0835558 0.00387446 0)
(0.0841931 0.00429146 0)
(0.0845685 0.00474384 0)
(0.0847545 0.00523402 0)
(0.0848291 0.00576447 0)
(0.0848725 0.0063365 0)
(0.0849728 0.00695064 0)
(0.0852249 0.00760611 0)
(0.0857136 0.00829933 0)
(0.0865111 0.00902399 0)
(0.0876865 0.00977005 0)
(0.0893487 0.0105209 0)
(0.0915763 0.0112508 0)
(0.0943741 0.0119268 0)
(0.0977309 0.0125093 0)
(0.101702 0.0129338 0)
(0.10372 0.0134 0)
(0 0 0)
(0.0137034 0.000304786 0)
(0.0260484 0.000589032 0)
(0.0367461 0.000853251 0)
(0.0459854 0.0011064 0)
(0.0539282 0.00135542 0)
(0.0607122 0.00160584 0)
(0.0664726 0.00186265 0)
(0.0713297 0.00213023 0)
(0.0753891 0.00241243 0)
(0.0787482 0.00271271 0)
(0.081498 0.00303433 0)
(0.083724 0.00338036 0)
(0.0855089 0.00375373 0)
(0.086934 0.00415728 0)
(0.0880819 0.00459366 0)
(0.0890346 0.00506509 0)
(0.0898742 0.00557376 0)
(0.0906798 0.00612126 0)
(0.0915329 0.00670837 0)
(0.0925288 0.00733576 0)
(0.0937731 0.00800198 0)
(0.095359 0.00870252 0)
(0.0973605 0.00943032 0)
(0.0998363 0.0101753 0)
(0.10286 0.0109201 0)
(0.106463 0.0116351 0)
(0.110585 0.0122816 0)
(0.115117 0.0128108 0)
(0.119915 0.0131501 0)
(0.122659 0.0134527 0)
(0 0 0)
(0.0138633 0.000328672 0)
(0.0263558 0.000634807 0)
(0.0372005 0.000919017 0)
(0.0465958 0.0011909 0)
(0.0547075 0.00145774 0)
(0.0616774 0.00172533 0)
(0.0676438 0.00199885 0)
(0.072731 0.00228281 0)
(0.0770484 0.00258108 0)
(0.0806978 0.00289716 0)
(0.0837738 0.0032342 0)
(0.0863666 0.00359513 0)
(0.0885632 0.00398268 0)
(0.0904493 0.00439945 0)
(0.0921164 0.004848 0)
(0.0936542 0.00533017 0)
(0.0951498 0.00584731 0)
(0.0966888 0.00640011 0)
(0.0983621 0.00698885 0)
(0.100264 0.00761378 0)
(0.102504 0.00827284 0)
(0.105188 0.00896052 0)
(0.108387 0.00966903 0)
(0.112167 0.0103894 0)
(0.11657 0.0111045 0)
(0.121562 0.0117841 0)
(0.127007 0.0123877 0)
(0.13267 0.0128611 0)
(0.138152 0.0131273 0)
(0.141337 0.013286 0)
(0 0 0)
(0.0140273 0.000350733 0)
(0.0266735 0.000677081 0)
(0.0376743 0.000979749 0)
(0.0472355 0.0012688 0)
(0.0555243 0.00155179 0)
(0.0626857 0.00183459 0)
(0.0688639 0.00212259 0)
(0.074188 0.00242042 0)
(0.0787702 0.00273188 0)
(0.082716 0.00306041 0)
(0.086124 0.00340899 0)
(0.0890883 0.00378029 0)
(0.0916997 0.00417664 0)
(0.0940497 0.00460048 0)
(0.0962366 0.00505412 0)
(0.0983541 0.00553852 0)
(0.100491 0.00605394 0)
(0.102742 0.00660044 0)
(0.105208 0.00717732 0)
(0.107989 0.00778382 0)
(0.111196 0.00841726 0)
(0.114931 0.00907087 0)
(0.11927 0.00973636 0)
(0.124288 0.010406 0)
(0.130004 0.0110655 0)
(0.136333 0.0116899 0)
(0.143072 0.0122475 0)
(0.149846 0.0126929 0)
(0.155994 0.0129452 0)
(0.159716 0.0131241 0)
(0 0 0)
(0.0141915 0.00037089 0)
(0.0270012 0.000715879 0)
(0.0381656 0.00103543 0)
(0.0478962 0.00133992 0)
(0.0563647 0.00163702 0)
(0.0637205 0.00193286 0)
(0.0701149 0.00223309 0)
(0.075679 0.00254223 0)
(0.0805276 0.00286394 0)
(0.0847706 0.00320156 0)
(0.0885099 0.00355782 0)
(0.091843 0.00393504 0)
(0.0948643 0.00433512 0)
(0.0976749 0.0047603 0)
(0.100374 0.00521224 0)
(0.103052 0.00569064 0)
(0.105802 0.00619479 0)
(0.108727 0.00672384 0)
(0.111929 0.00727588 0)
(0.115522 0.00784884 0)
(0.119614 0.00843854 0)
(0.124293 0.00903677 0)
(0.129642 0.00963457 0)
(0.135739 0.0102247 0)
(0.142594 0.0107969 0)
(0.150101 0.0113369 0)
(0.158031 0.0118343 0)
(0.165933 0.0122768 0)
(0.172913 0.0125859 0)
(0.177954 0.0129548 0)
(0 0 0)
(0.0143578 0.000389222 0)
(0.0273335 0.000751089 0)
(0.0386666 0.00108583 0)
(0.0485685 0.00140394 0)
(0.0572163 0.0017132 0)
(0.0647713 0.00202014 0)
(0.0713856 0.00233043 0)
(0.077189 0.00264827 0)
(0.0823022 0.00297733 0)
(0.0868394 0.00332077 0)
(0.0909046 0.00368101 0)
(0.0945981 0.0040599 0)
(0.0980197 0.00445906 0)
(0.101276 0.00488023 0)
(0.104462 0.00532375 0)
(0.107663 0.00578833 0)
(0.110981 0.00627247 0)
(0.114518 0.00677402 0)
(0.118378 0.00728979 0)
(0.12268 0.00781573 0)
(0.127524 0.00834548 0)
(0.132981 0.0088691 0)
(0.139131 0.00937581 0)
(0.146048 0.00985658 0)
(0.153734 0.0103018 0)
(0.16208 0.0107038 0)
(0.170881 0.0110724 0)
(0.179736 0.0114528 0)
(0.187733 0.011844 0)
(0.195964 0.0127668 0)
(0 0 0)
(0.0145251 0.000405775 0)
(0.0276661 0.000782785 0)
(0.0391721 0.00113113 0)
(0.0492517 0.00146129 0)
(0.0580832 0.00178107 0)
(0.0658399 0.00209729 0)
(0.0726747 0.00241543 0)
(0.078718 0.00273957 0)
(0.0840957 0.00307332 0)
(0.0889236 0.00341952 0)
(0.0933082 0.00378023 0)
(0.0973523 0.00415688 0)
(0.101161 0.00455067 0)
(0.104836 0.00496232 0)
(0.108467 0.005391 0)
(0.112147 0.00583479 0)
(0.115974 0.00629113 0)
(0.120048 0.00675636 0)
(0.12447 0.00722598 0)
(0.129356 0.00769379 0)
(0.134783 0.00815061 0)
(0.140807 0.00858433 0)
(0.147492 0.00898103 0)
(0.154887 0.00932625 0)
(0.162962 0.00960372 0)
(0.171584 0.00979264 0)
(0.180541 0.00986933 0)
(0.189447 0.00980225 0)
(0.197634 0.00943722 0)
(0.213737 0.0127066 0)
(-3.29597e-17 0 0)
(0.0051714 0 0)
(0.00995429 0 0)
(0.0173153 0 0)
(0.0265598 0 0)
(0.0369026 0 0)
(0.047622 0 0)
(0.0581377 0 0)
(0.068019 0 0)
(0.0769857 0 0)
(0.0848786 0 0)
(0.0916168 0 0)
(0.0971722 0 0)
(0.101551 0 0)
(0.104777 0 0)
(0.106879 0 0)
(0.10788 0 0)
(0.107796 0 0)
(0.106643 0 0)
(0.10442 0 0)
(0.101116 0 0)
(0.0967099 0 0)
(0.0911674 0 0)
(0.0844478 0 0)
(0.0765044 0 0)
(0.0672836 0 0)
(0.0567207 0 0)
(0.0447437 0 0)
(0.0312842 0 0)
(0.0162639 0 0)
(0 0 0)
(0.00215335 -0.00255236 0)
(0.00683654 -0.00240326 0)
(0.0116255 -0.0023815 0)
(0.0189541 -0.00230503 0)
(0.0281324 -0.00219818 0)
(0.0383706 -0.00206913 0)
(0.0489572 -0.00192308 0)
(0.0593269 -0.00176919 0)
(0.0690584 -0.0016147 0)
(0.0778821 -0.00146412 0)
(0.0856435 -0.00132099 0)
(0.0922639 -0.00118807 0)
(0.0977156 -0.00106578 0)
(0.102004 -0.000953482 0)
(0.105154 -0.000851433 0)
(0.107192 -0.000759618 0)
(0.108138 -0.000676701 0)
(0.108009 -0.00060078 0)
(0.106818 -0.000532322 0)
(0.104565 -0.000471156 0)
(0.101236 -0.000415771 0)
(0.0968085 -0.000365268 0)
(0.0912485 -0.000318673 0)
(0.0845139 -0.000275408 0)
(0.0765578 -0.000234828 0)
(0.0673248 -0.000196072 0)
(0.0567512 -0.000158416 0)
(0.0447676 -0.00012089 0)
(0.031302 -8.2488e-05 0)
(0.0162733 -4.22556e-05 0)
(0 0 0)
(0.00721565 -0.00487793 0)
(0.0116591 -0.00466892 0)
(0.0165166 -0.00463642 0)
(0.0237848 -0.00450201 0)
(0.0327744 -0.00430258 0)
(0.0426931 -0.00405379 0)
(0.0528811 -0.00377048 0)
(0.0628201 -0.00346971 0)
(0.0721196 -0.00316766 0)
(0.080528 -0.00287423 0)
(0.0879032 -0.00259465 0)
(0.0941765 -0.00233443 0)
(0.0993205 -0.002095 0)
(0.103343 -0.0018756 0)
(0.106267 -0.00167604 0)
(0.108115 -0.00149613 0)
(0.108903 -0.00133371 0)
(0.108641 -0.00118543 0)
(0.107339 -0.00105147 0)
(0.104994 -0.000931333 0)
(0.101591 -0.000822568 0)
(0.0971023 -0.000723254 0)
(0.0914907 -0.000631334 0)
(0.0847114 -0.000545892 0)
(0.0767179 -0.000465723 0)
(0.0674528 -0.000389019 0)
(0.0568514 -0.000314225 0)
(0.0448442 -0.000239651 0)
(0.0313559 -0.000163534 0)
(0.016302 -8.37862e-05 0)
(0 0 0)
(0.0150765 -0.00692842 0)
(0.0192965 -0.00671238 0)
(0.0243164 -0.00668338 0)
(0.0315147 -0.00651171 0)
(0.0401843 -0.00623497 0)
(0.0495816 -0.00587907 0)
(0.0591419 -0.00547338 0)
(0.0684085 -0.00504312 0)
(0.0770269 -0.00460993 0)
(0.08477 -0.00418786 0)
(0.0915278 -0.00378551 0)
(0.0972472 -0.00340963 0)
(0.101903 -0.00306308 0)
(0.105503 -0.00274581 0)
(0.108066 -0.00245667 0)
(0.109608 -0.00219462 0)
(0.110139 -0.00195791 0)
(0.109665 -0.00174325 0)
(0.108187 -0.00154888 0)
(0.105695 -0.0013734 0)
(0.102169 -0.00121408 0)
(0.0975814 -0.0010684 0)
(0.0918869 -0.000933502 0)
(0.0850343 -0.000807723 0)
(0.0769798 -0.000689449 0)
(0.0676656 -0.000576255 0)
(0.0570216 -0.000465654 0)
(0.0449734 -0.000355189 0)
(0.0314446 -0.000242434 0)
(0.0163488 -0.000124242 0)
(0 0 0)
(0.0253738 -0.00868087 0)
(0.0294107 -0.00851359 0)
(0.0346499 -0.00849237 0)
(0.0417386 -0.00829094 0)
(0.049962 -0.00794715 0)
(0.0586833 -0.00750006 0)
(0.0674353 -0.00698998 0)
(0.0758189 -0.00644999 0)
(0.0835226 -0.00590427 0)
(0.0903801 -0.00537099 0)
(0.0963285 -0.00486344 0)
(0.101321 -0.00438862 0)
(0.105335 -0.00394962 0)
(0.108379 -0.00354694 0)
(0.110467 -0.00317907 0)
(0.111604 -0.00284403 0)
(0.111796 -0.00254085 0)
(0.111042 -0.00226668 0)
(0.109328 -0.00201772 0)
(0.106639 -0.00179169 0)
(0.102949 -0.00158551 0)
(0.0982273 -0.00139656 0)
(0.0924219 -0.00122196 0)
(0.0854736 -0.00105856 0)
(0.0773357 -0.000904074 0)
(0.0679522 -0.000756042 0)
(0.0572506 -0.000611213 0)
(0.0451474 -0.000466418 0)
(0.0315643 -0.000318481 0)
(0.0164124 -0.000163273 0)
(0 0 0)
(0.0376941 -0.010184 0)
(0.041669 -0.0100976 0)
(0.0471334 -0.0100679 0)
(0.054047 -0.0098276 0)
(0.0617172 -0.00941972 0)
(0.0696251 -0.00889347 0)
(0.077395 -0.00829545 0)
(0.0846947 -0.00766375 0)
(0.0912909 -0.00702538 0)
(0.0970989 -0.00640167 0)
(0.102086 -0.00580812 0)
(0.106211 -0.00525245 0)
(0.109458 -0.00473736 0)
(0.111842 -0.00426377 0)
(0.113364 -0.00383005 0)
(0.114021 -0.00343389 0)
(0.11381 -0.00307416 0)
(0.112717 -0.0027481 0)
(0.11072 -0.00245093 0)
(0.107794 -0.00217989 0)
(0.103906 -0.00193196 0)
(0.0990163 -0.00170404 0)
(0.0930728 -0.00149323 0)
(0.0860123 -0.00129552 0)
(0.0777774 -0.00110764 0)
(0.068311 -0.000926906 0)
(0.0575368 -0.000749754 0)
(0.0453619 -0.000572461 0)
(0.0317114 -0.000391092 0)
(0.0164922 -0.000200615 0)
(0 0 0)
(0.0517459 -0.0116074 0)
(0.0558123 -0.0114952 0)
(0.0614388 -0.0114198 0)
(0.0680678 -0.0111184 0)
(0.0750535 -0.0106426 0)
(0.0819914 -0.010044 0)
(0.0886028 -0.00937186 0)
(0.0946539 -0.00866732 0)
(0.100011 -0.00795895 0)
(0.10465 -0.00726745 0)
(0.108557 -0.00660838 0)
(0.111711 -0.00599083 0)
(0.11411 -0.00541748 0)
(0.11576 -0.00488866 0)
(0.116653 -0.00440291 0)
(0.116775 -0.00395779 0)
(0.116107 -0.00355133 0)
(0.114631 -0.00318141 0)
(0.112315 -0.00284364 0)
(0.109119 -0.00253418 0)
(0.105006 -0.0022501 0)
(0.0999251 -0.00198796 0)
(0.093821 -0.00174447 0)
(0.0866303 -0.00151563 0)
(0.0782871 -0.00129754 0)
(0.0687262 -0.00108695 0)
(0.0578652 -0.000880153 0)
(0.0456065 -0.000672668 0)
(0.0318762 -0.000459813 0)
(0.0165771 -0.000235962 0)
(0 0 0)
(0.0676429 -0.0129371 0)
(0.0716168 -0.0126794 0)
(0.0772529 -0.0125255 0)
(0.0834142 -0.0121463 0)
(0.089542 -0.0116018 0)
(0.0953424 -0.010941 0)
(0.10064 -0.0102109 0)
(0.105322 -0.00945382 0)
(0.109348 -0.00869802 0)
(0.112735 -0.00796142 0)
(0.11549 -0.00725846 0)
(0.11762 -0.00659902 0)
(0.119125 -0.00598583 0)
(0.12 -0.00541808 0)
(0.120226 -0.00489449 0)
(0.119777 -0.00441267 0)
(0.118621 -0.00396993 0)
(0.116729 -0.00356467 0)
(0.114066 -0.00319375 0)
(0.11058 -0.0028527 0)
(0.10622 -0.00253808 0)