/*--------------------------------*- C++ -*----------------------------------*\
| =========                 |                                                 |
| \\      /  F ield         | OpenFOAM: The Open Source CFD Toolbox           |
|  \\    /   O peration     | Version:  5.x                                   |
|   \\  /    A nd           | Web:      www.OpenFOAM.org                      |
|    \\/     M anipulation  |                                                 |
\*---------------------------------------------------------------------------*/
FoamFile
{
    version     2.0;
    format      ascii;
    class       volVectorField;
    location    "0.6";
    object      Stress;
}
// * * * * * * * * * * * * * * * * * * * * * * * * * * * * * * * * * * * * * //

dimensions      [1 -1 -2 0 0 0 0];

internalField   uniform (0 0 0);

boundaryField
{
    inlet
    {
        type            calculated;
        value           uniform (0 0 0);
    }
    outlet
    {
        type            calculated;
        value           uniform (0 0 0);
    }
    flap
    {
        type            calculated;
        value           nonuniform List<vector> 
33
(
(140.81 -4.56622 -1.09349e-19)
(140.739 -10.7124 9.18708e-17)
(140.333 -16.379 -6.01853e-36)
(139.118 -21.2972 -6.58367e-19)
(136.843 -25.3783 8.4426e-17)
(133.589 -28.1497 -8.39298e-17)
(129.381 -30.0569 -2.85561e-20)
(124.292 -31.0752 8.31527e-17)
(118.43 -31.2127 3.18403e-16)
(111.962 -30.6415 8.21447e-17)
(105.064 -29.0296 3.65995e-16)
(97.4781 -26.101 7.76626e-21)
(87.8137 -22.3932 -2.94646e-21)
(73.6162 -18.33 2.59557e-21)
(51.2523 -12.7266 7.28635e-17)
(17.9233 69.5799 1.79862e-16)
(12.2041 47.9338 7.52316e-37)
(7.82881 31.2349 1.74233e-19)
(-7.69986 0.271601 4.70198e-38)
(-7.86995 0.655669 -5.49966e-18)
(-7.76133 0.992676 7.72309e-17)
(-7.19769 1.21735 4.24226e-20)
(-6.07423 1.25194 1.88079e-37)
(-4.3944 1.05654 7.91304e-17)
(-2.23773 0.654685 1.59424e-16)
(0.296095 0.0615244 -8.02238e-17)
(3.12255 -0.685183 8.08157e-17)
(6.29971 -1.57154 7.52316e-37)
(9.72267 -2.50693 2.61652e-17)
(13.1687 -3.30807 9.58213e-22)
(15.9174 -3.85263 -4.26088e-17)
(17.3743 -4.18249 -4.68391e-17)
(17.9812 -4.3472 -9.46884e-17)
)
;
    }
    upperWall
    {
        type            calculated;
        value           uniform (0 0 0);
    }
    lowerWall
    {
        type            calculated;
        value           uniform (0 0 0);
    }
    frontAndBack
    {
        type            empty;
    }
}


// ************************************************************************* //
