/*--------------------------------*- C++ -*----------------------------------*\
| =========                 |                                                 |
| \\      /  F ield         | OpenFOAM: The Open Source CFD Toolbox           |
|  \\    /   O peration     | Version:  2006                                  |
|   \\  /    A nd           | Website:  www.openfoam.com                      |
|    \\/     M anipulation  |                                                 |
\*---------------------------------------------------------------------------*/
FoamFile
{
    version     2.0;
    format      ascii;
    class       volVectorField;
    location    "0.6";
    object      U;
}
// * * * * * * * * * * * * * * * * * * * * * * * * * * * * * * * * * * * * * //

dimensions      [0 1 -1 0 0 0 0];


internalField   nonuniform List<vector> 
2790
(
(9.94289 0.0194702 0)
(9.88185 0.0273935 -1.11789e-20)
(9.79244 0.0326535 -2.80361e-23)
(9.68076 0.0380562 2.61828e-20)
(9.55286 0.0436683 -1.18819e-20)
(9.40985 0.0494239 0)
(9.25088 0.055439 -2.52746e-20)
(9.07495 0.0618651 2.57996e-20)
(8.88118 0.0688355 0)
(8.66855 0.076477 1.38552e-20)
(8.43583 0.0849242 0)
(8.18157 0.0943254 2.9927e-20)
(7.90416 0.104845 0)
(7.60187 0.116659 -7.36288e-20)
(7.27289 0.129953 -2.61551e-20)
(6.91544 0.144908 3.58797e-20)
(6.52788 0.161688 2.31223e-19)
(6.10882 0.180418 -1.61169e-19)
(5.65737 0.201151 -3.50335e-19)
(5.17333 0.223827 1.8251e-19)
(4.65742 0.248217 6.02888e-19)
(4.11155 0.273871 -1.08284e-18)
(3.53903 0.30003 6.95525e-19)
(2.94483 0.325479 -2.54954e-19)
(2.33593 0.348169 -2.24119e-18)
(1.72167 0.364012 2.12878e-18)
(1.11464 0.362645 0)
(0.539268 0.312058 -3.67014e-19)
(0.036771 0.124033 -2.77224e-18)
(-0.0892289 -0.270632 -3.76369e-18)
(9.9978 0.0374332 -5.4759e-21)
(9.98835 0.0557878 0)
(9.95409 0.0692513 0)
(9.89696 0.0834104 -2.87184e-21)
(9.8216 0.0984766 0)
(9.72919 0.11426 0)
(9.61909 0.130981 -2.46983e-20)
(9.49036 0.148976 -1.01766e-22)
(9.34215 0.168551 -2.61352e-20)
(9.17347 0.190003 -1.35368e-20)
(8.98311 0.213644 0)
(8.76964 0.239815 2.12597e-22)
(8.53146 0.268885 -8.97053e-20)
(8.26682 0.301235 3.73111e-19)
(7.97385 0.337239 9.14175e-22)
(7.65069 0.377226 -1.35773e-19)
(7.29553 0.421433 -7.15362e-20)
(6.90679 0.469937 0)
(6.48325 0.522554 6.44863e-19)
(6.02433 0.578723 -5.02552e-19)
(5.53027 0.637384 -1.6409e-18)
(5.00243 0.696846 1.3419e-18)
(4.44351 0.754594 -3.14237e-18)
(3.85794 0.807029 1.77896e-19)
(3.25226 0.848982 3.85394e-18)
(2.63563 0.872507 -2.61543e-19)
(2.0197 0.863835 0)
(1.41875 0.796239 3.11597e-19)
(0.833245 0.622386 1.06342e-17)
(0.411474 0.257655 -1.20115e-17)
(9.99486 0.0376636 6.84407e-21)
(9.98226 0.0642742 -1.38506e-21)
(9.94966 0.0869202 0)
(9.89669 0.110437 0)
(9.82668 0.135435 0)
(9.74092 0.161838 1.11611e-20)
(9.63904 0.189938 -2.36163e-20)
(9.52031 0.220202 2.50343e-20)
(9.38402 0.253103 5.1345e-20)
(9.22933 0.289123 2.68919e-20)
(9.05524 0.328774 -1.09181e-19)
(8.86055 0.372615 1.68637e-19)
(8.64386 0.421262 0)
(8.40364 0.475362 -2.42541e-19)
(8.13824 0.535561 -1.26429e-19)
(7.84594 0.602451 -3.99901e-19)
(7.52499 0.676502 5.4627e-19)
(7.17375 0.757941 0)
(6.79076 0.846597 0)
(6.37492 0.941712 0)
(5.92559 1.04174 0)
(5.44286 1.14408 -2.906e-18)
(4.92773 1.24477 6.13582e-18)
(4.38223 1.33805 -4.07033e-18)
(3.80953 1.41579 -6.18304e-18)
(3.21359 1.46641 1.46298e-17)
(2.59744 1.47306 -8.13046e-18)
(1.96079 1.41122 1.00062e-17)
(1.27335 1.25536 -2.93675e-17)
(0.656105 0.96744 2.169e-17)
(9.99325 0.0417938 0)
(9.97834 0.0780019 1.38255e-21)
(9.94533 0.110914 -1.39992e-21)
(9.89331 0.143997 7.14187e-22)
(9.82465 0.17844 -7.23735e-22)
(9.74058 0.214574 -1.18601e-20)
(9.64097 0.252849 2.42533e-20)
(9.52524 0.293871 -2.49494e-20)
(9.3928 0.338289 2.52022e-20)
(9.24303 0.386769 1.05083e-19)
(9.07513 0.440012 -5.35538e-20)
(8.88819 0.498786 -1.11357e-19)
(8.68112 0.563935 1.17018e-19)
(8.45275 0.636361 1.20514e-19)
(8.20185 0.716975 -2.52033e-19)
(7.92708 0.806657 2.53269e-19)
(7.62712 0.906165 1.08076e-18)
(7.30061 1.01599 -1.10848e-18)
(6.9463 1.13616 0)
(6.56301 1.26603 -2.47869e-18)
(6.14963 1.40396 2.5613e-18)
(5.70528 1.54701 0)
(5.22928 1.69051 0)
(4.72102 1.8276 6.90536e-18)
(4.17968 1.94879 -7.26548e-18)
(3.6035 2.04142 -5.23064e-18)
(2.98786 2.08924 2.32951e-17)
(2.32494 2.07277 -3.32726e-17)
(1.57618 1.98047 -7.97425e-20)
(0.838092 1.79228 5.89242e-19)
(9.99247 0.0473886 6.80758e-22)
(9.97624 0.0916141 -6.8851e-22)
(9.94287 0.13331 0)
(9.89161 0.174984 1.13316e-20)
(9.82428 0.218153 0)
(9.7419 0.263498 0)
(9.64441 0.311593 4.80367e-20)
(9.53131 0.363127 0)
(9.40208 0.418854 -5.05e-20)
(9.25617 0.479565 1.03315e-19)
(9.09293 0.546084 -1.06189e-19)
(8.91158 0.619317 1.09322e-19)
(8.71125 0.700266 3.38737e-19)
(8.49103 0.790004 -2.34126e-19)
(8.24998 0.889634 -7.30036e-19)
(7.98708 1.00025 7.48633e-19)
(7.70136 1.12286 1.05078e-18)
(7.39183 1.2582 -3.26117e-18)
(7.05749 1.40658 2.23979e-18)
(6.69729 1.56761 -5.86752e-19)
(6.31002 1.7399 0)
(5.89417 1.92065 -6.42942e-19)
(5.44782 2.10525 6.75211e-19)
(4.96829 2.28682 0)
(4.45169 2.45602 7.51277e-19)
(3.89231 2.60098 -1.45112e-17)
(3.2812 2.70769 1.36544e-17)
(2.60815 2.76081 0)
(1.8382 2.75249 9.92969e-19)
(1.01412 2.67756 1.11317e-18)
(9.99211 0.0536645 0)
(9.97524 0.105352 0)
(9.94187 0.155395 0)
(9.89158 0.205627 -1.13028e-20)
(9.82587 0.257559 5.75931e-21)
(9.74554 0.312067 -4.09234e-20)
(9.65056 0.369836 -3.59114e-20)
(9.54052 0.431635 4.90157e-20)
(9.41489 0.498311 1.42122e-22)
(9.27321 0.570767 -1.02489e-19)
(9.11491 0.649945 -1.42846e-21)
(8.93931 0.736875 -1.11077e-19)
(8.74566 0.832701 -2.09921e-21)
(8.5332 0.938643 -4.61658e-19)
(8.30117 1.05597 4.69311e-19)
(8.04871 1.18597 -4.86902e-19)
(7.77504 1.32988 0)
(7.47939 1.48867 2.11729e-18)
(7.16094 1.66295 -2.16189e-18)
(6.81872 1.85269 -1.15218e-18)
(6.45147 2.05699 6.51207e-18)
(6.0573 2.27357 -9.22536e-18)
(5.63351 2.49844 4.46082e-18)
(5.17607 2.72547 0)
(4.6792 2.94631 -2.11522e-18)
(4.13514 3.1505 7.51715e-19)
(3.53313 3.32596 1.26925e-17)
(2.86257 3.45918 -1.34823e-17)
(2.10146 3.53647 -1.82747e-20)
(1.20589 3.57607 -1.51352e-18)
(9.99197 0.0602358 -1.05701e-23)
(9.97496 0.119119 1.06778e-23)
(9.94195 0.177074 0)
(9.89283 0.235533 0)
(9.829 0.295909 -2.27794e-20)
(9.75108 0.359206 2.32586e-20)
(9.65905 0.426238 -2.37676e-20)
(9.55253 0.497875 2.40504e-20)
(9.43104 0.575051 -4.94645e-20)
(9.2942 0.658762 0)
(9.1415 0.750054 1.35095e-21)
(8.97233 0.850067 6.39139e-22)
(8.78603 0.96006 4.39476e-19)
(8.58194 1.08138 -2.22146e-19)
(8.35937 1.21546 0)
(8.11757 1.36375 9.52492e-19)
(7.85583 1.52768 0)
(7.57349 1.70848 -2.0479e-18)
(7.26972 1.90706 2.0849e-18)
(6.94357 2.1239 3.83659e-18)
(6.59364 2.35869 -9.56914e-18)
(6.2178 2.60999 3.48645e-18)
(5.81293 2.87479 0)
(5.37417 3.14814 0)
(4.89475 3.42298 1.33366e-18)
(4.36613 3.69025 0)
(3.77717 3.93884 -7.36792e-19)
(3.11624 4.15556 0)
(2.38429 4.3129 -8.33481e-19)
(1.42119 4.46276 1.46097e-20)
(9.99198 0.0668798 1.07633e-20)
(9.97514 0.132752 -1.08697e-20)
(9.94282 0.198225 -2.75851e-21)
(9.89512 0.264544 8.38179e-21)
(9.83342 0.333032 1.70526e-20)
(9.75827 0.404779 -4.59913e-20)
(9.66957 0.480709 -7.03655e-20)
(9.56703 0.561782 2.38135e-20)
(9.45023 0.649011 0)
(9.31883 0.743462 0)
(9.17243 0.846282 -1.02943e-19)
(9.01044 0.95871 -1.88133e-21)
(8.83227 1.08211 2.13279e-19)
(8.63738 1.21796 -6.62984e-19)
(8.4251 1.36783 4.48105e-19)
(8.19472 1.53335 -4.65916e-19)
(7.94564 1.71614 1.44795e-18)
(7.67721 1.91771 -1.94971e-18)
(7.3885 2.13934 5.02157e-19)
(7.07842 2.38204 -4.19885e-18)
(6.74547 2.64626 9.68403e-18)
(6.38734 2.93152 -3.29258e-18)
(6.00053 3.23605 0)
(5.57982 3.55632 -8.36882e-18)
(5.11804 3.88662 1.9702e-17)
(4.60632 4.21899 -1.20475e-18)
(4.03396 4.54244 -1.06935e-17)
(3.38584 4.84351 -2.18118e-17)
(2.69566 5.0749 2.3855e-17)
(1.66323 5.32961 4.10857e-19)
(9.99207 0.0734581 -1.07573e-20)
(9.97566 0.146102 9.50129e-21)
(9.94431 0.218734 1.36835e-21)
(9.89827 0.292538 0)
(9.83896 0.368778 0)
(9.76687 0.448601 4.58113e-20)
(9.68191 0.533022 9.29599e-20)
(9.58378 0.623079 0)
(9.47218 0.719846 0)
(9.34681 0.824462 -9.89093e-20)
(9.20734 0.938164 9.99403e-20)
(9.05322 1.06229 0)
(8.88396 1.19829 -2.10814e-19)
(8.69911 1.34777 -4.32683e-19)
(8.49801 1.51243 4.37396e-19)
(8.28002 1.69408 -1.3567e-18)
(8.0447 1.89455 1.38363e-18)
(7.7913 2.11567 0)
(7.51876 2.35916 -1.45474e-18)
(7.2259 2.62659 9.89149e-19)
(6.91109 2.9192 0)
(6.57188 3.23772 0)
(6.2044 3.5817 -7.60477e-18)
(5.80338 3.94918 1.66268e-17)
(5.36144 4.33587 -7.98708e-18)
(4.86922 4.73474 1.19669e-18)
(4.31686 5.13431 1.95584e-17)
(3.68219 5.52078 -2.04493e-17)
(3.03935 5.82251 1.99496e-17)
(1.93216 6.17495 -2.32181e-17)
(9.99223 0.079877 3.34157e-22)
(9.97642 0.159047 -3.36969e-22)
(9.94626 0.238489 0)
(9.90213 0.319395 0)
(9.84546 0.402996 1.12018e-20)
(9.77673 0.490484 1.14379e-20)
(9.69585 0.582947 -2.31867e-20)
(9.60256 0.681489 0)
(9.49662 0.787242 9.49687e-20)
(9.37781 0.901405 0)
(9.24581 1.0253 0)
(9.10021 1.16034 0)
(8.9406 1.30807 -2.04906e-19)
(8.76657 1.47021 0)
(8.57758 1.64859 8.6381e-19)
(8.3731 1.84516 5.0728e-21)
(8.1527 2.06202 4.44749e-19)
(7.91558 2.30134 1.84066e-18)
(7.66069 2.56534 1.03411e-20)
(7.38686 2.85615 -1.90647e-18)
(7.09229 3.17591 0)
(6.77444 3.52663 0)
(6.42932 3.9094 -9.14751e-18)
(6.05148 4.3239 8.23969e-18)
(5.63319 4.7675 -1.07059e-18)
(5.16447 5.23447 0)
(4.63582 5.71258 0)
(4.01352 6.18799 -5.8542e-19)
(3.41496 6.56207 1.81251e-18)
(2.22595 7.00329 3.08982e-19)
(9.99244 0.0860686 2.15683e-20)
(9.97736 0.17149 -2.17415e-20)
(9.9486 0.257387 0)
(9.9066 0.344994 2.73326e-20)
(9.85281 0.435542 -5.53145e-21)
(9.78771 0.530256 0)
(9.7112 0.630282 -4.57155e-20)
(9.62311 0.736777 0)
(9.52326 0.850925 -9.4382e-20)
(9.41146 0.973985 -1.91416e-19)
(9.28746 1.10733 -9.87326e-20)
(9.15098 1.25246 -5.66625e-23)
(9.00169 1.41099 2.02678e-19)
(8.83927 1.58472 0)
(8.66329 1.77563 8.4145e-19)
(8.47335 1.98584 -2.13276e-18)
(8.26898 2.21765 8.56211e-19)
(8.04946 2.47363 4.37401e-19)
(7.81396 2.75645 -1.79264e-18)
(7.56131 3.06889 1.79373e-20)
(7.28961 3.41402 3.70648e-18)
(6.99643 3.79525 2.21832e-20)
(6.67793 4.21538 -1.13637e-17)
(6.32819 4.6759 7.65121e-18)
(5.93928 5.17644 0)
(5.50009 5.71353 0)
(5.00037 6.27503 0)
(4.38963 6.84846 -4.9476e-19)
(3.8227 7.31114 -5.46549e-19)
(2.54275 7.84007 -1.55019e-19)
(9.99268 0.0919842 -2.12248e-20)
(9.97844 0.183348 2.13839e-20)
(9.95125 0.275329 -2.14699e-20)
(9.91159 0.369226 -1.63512e-20)
(9.86088 0.466289 -5.4884e-21)
(9.79962 0.567769 0)
(9.72779 0.674851 -4.4993e-20)
(9.64521 0.788734 9.12288e-20)
(9.55181 0.910656 0)
(9.44746 1.04192 -4.72592e-23)
(9.33196 1.18395 9.53659e-20)
(9.20513 1.33828 1.95443e-19)
(9.06678 1.5066 0)
(8.91663 1.69079 -8.02664e-19)
(8.75445 1.89297 4.05766e-19)
(8.57995 2.11538 -8.31546e-19)
(8.39269 2.36054 -4.30544e-19)
(8.19219 2.63136 4.1774e-19)
(7.97788 2.93097 8.68098e-19)
(7.74865 3.26277 -2.60737e-18)
(7.50265 3.63077 -8.82338e-19)
(7.23796 4.03983 -1.00698e-20)
(6.95108 4.49465 3.53146e-18)
(6.63587 4.99887 -8.68744e-19)
(6.28435 5.55526 0)
(5.88379 6.16425 0)
(5.42213 6.81682 0)
(4.82769 7.5061 8.91218e-19)
(4.27704 8.09828 0)
(2.89453 8.76102 -1.26128e-19)
(9.99293 0.0975862 -2.16705e-20)
(9.97965 0.19455 6.62815e-22)
(9.95417 0.29223 2.14371e-20)
(9.917 0.391999 0)
(9.86954 0.495129 0)
(9.81235 0.602889 -1.10625e-20)
(9.74543 0.716493 5.59493e-20)
(9.66866 0.837176 -1.80949e-19)
(9.58204 0.966214 -4.60076e-20)
(9.48549 1.10495 4.62998e-20)
(9.37891 1.25484 0)
(9.26224 1.41745 1.9182e-19)
(9.13533 1.59452 1.94157e-19)
(8.99801 1.78798 -1.94709e-19)
(8.85029 2.00006 3.95616e-19)
(8.69204 2.23312 0)
(8.52294 2.48985 4.02727e-19)
(8.34273 2.7734 0)
(8.15129 3.08737 -8.1656e-19)
(7.94762 3.43572 0)
(7.73022 3.82325 8.40157e-19)
(7.49808 4.25628 0)
(7.24834 4.74139 0)
(6.97542 5.28487 8.30263e-19)
(6.67164 5.89337 0)
(6.32331 6.5737 -7.00206e-18)
(5.91703 7.32572 6.29236e-18)
(5.35957 8.15693 -3.98029e-19)
(4.83071 8.94789 -1.82664e-19)
(3.32318 9.87459 1.28067e-17)
(9.9932 0.102844 2.16571e-20)
(9.98096 0.20504 -6.58809e-22)
(9.9573 0.308023 -2.65817e-21)
(9.92274 0.413232 -2.40544e-20)
(9.87872 0.521966 -2.00093e-23)
(9.82579 0.635503 1.64111e-20)
(9.76398 0.75508 -3.3188e-20)
(9.69326 0.881954 2.29555e-20)
(9.61368 1.01743 -4.53906e-20)
(9.52525 1.16289 4.56397e-20)
(9.42793 1.31979 9.30039e-20)
(9.3218 1.48974 -9.34324e-20)
(9.20676 1.67448 -1.90733e-19)
(9.08274 1.87598 7.65667e-19)
(8.95003 2.0965 2.70085e-21)
(8.80872 2.33853 -3.93432e-19)
(8.65864 2.60487 -4.55202e-21)
(8.49983 2.89882 1.18288e-18)
(8.33265 3.22435 9.98995e-21)
(8.15642 3.58584 0)
(7.97036 3.98874 1.57142e-18)
(7.77459 4.44047 -1.56038e-18)
(7.56749 4.94936 0)
(7.34514 5.52446 0)
(7.10153 6.1767 -5.73977e-18)
(6.82489 6.92126 5.72998e-18)
(6.50441 7.77348 -5.19735e-18)
(6.03514 8.76952 4.64954e-18)
(5.59336 9.85456 -1.16198e-19)
(3.93112 11.3304 6.28213e-20)
(9.9935 0.107731 0)
(9.98234 0.214774 -2.62005e-21)
(9.96059 0.32265 -4.1606e-24)
(9.92876 0.432849 2.39798e-20)
(9.88831 0.546695 0)
(9.83979 0.665481 0)
(9.7833 0.790453 -3.26177e-20)
(9.71883 0.922876 7.76906e-20)
(9.64649 1.06408 6.65282e-20)
(9.56641 1.21545 -2.27589e-20)
(9.47861 1.37847 4.54428e-20)
(9.38326 1.55476 1.83089e-19)
(9.28042 1.74607 0)
(9.17014 1.95431 -4.96451e-21)
(9.05292 2.18175 -3.74563e-19)
(8.92904 2.43096 -7.58807e-19)
(8.79861 2.7048 -3.77311e-19)
(8.66209 3.00666 -3.84857e-19)
(8.52018 3.34063 0)
(8.37275 3.71137 0)
(8.22019 4.12471 0)
(8.06382 4.5886 1.46002e-18)
(7.90388 5.11261 -1.44055e-18)
(7.73937 5.70789 2.7291e-18)
(7.56851 6.38889 -3.32121e-18)
(7.38645 7.17802 6.41314e-19)
(7.19544 8.10687 -1.90586e-18)
(6.9107 9.24404 2.6978e-18)
(6.73918 10.6609 3.31701e-18)
(5.00073 13.3918 -3.23392e-18)
(-0.00774703 0.133758 0)
(-0.597474 0.403945 -3.06731e-21)
(-1.41218 0.476613 -6.57222e-22)
(-2.33534 0.499757 6.27624e-22)
(-3.3277 0.503062 1.61236e-20)
(-4.35504 0.495102 -1.49819e-19)
(-5.39121 0.479395 1.80943e-19)
(-6.41737 0.457791 0)
(-7.42 0.431445 1.63842e-19)
(-8.38895 0.401148 -1.5374e-19)
(-9.31591 0.367456 0)
(-10.1934 0.330749 0)
(-11.014 0.291278 -6.34857e-20)
(-11.7694 0.249174 0)
(-12.4504 0.204492 -3.69971e-20)
(-13.0466 0.157252 1.00424e-20)
(-13.5462 0.107432 -5.03188e-20)
(-13.9362 0.0550028 0)
(-14.2024 -0.000220242 0)
(-14.3288 -0.058946 0)
(-14.298 -0.123208 -1.95179e-20)
(-14.092 -0.194677 1.08076e-20)
(-13.6908 -0.274574 1.89545e-21)
(-13.0718 -0.366042 1.63477e-20)
(-12.2054 -0.474809 -1.09893e-20)
(-11.0442 -0.610546 1.13143e-20)
(-9.50202 -0.793165 1.84486e-21)
(-7.42539 -1.06854 -2.09923e-21)
(-4.55676 -1.50738 -4.28493e-22)
(0.287077 -2.07814 4.59963e-22)
(-0.280595 0.582553 2.35645e-19)
(-0.882121 0.903831 -3.21403e-19)
(-1.69586 1.05178 1.13052e-19)
(-2.60023 1.13394 8.66277e-21)
(-3.56735 1.17779 -1.45587e-20)
(-4.56521 1.19512 3.39546e-19)
(-5.56961 1.19198 -3.0101e-19)
(-6.56313 1.1721 0)
(-7.53317 1.13808 4.83454e-19)
(-8.47005 1.09183 -5.05799e-19)
(-9.36577 1.03472 -4.2494e-19)
(-10.2131 0.96769 5.17703e-19)
(-11.0046 0.8913 -3.265e-19)
(-11.7321 0.80579 6.74368e-19)
(-12.3864 0.711156 -2.39384e-19)
(-12.9567 0.607319 -7.77992e-20)
(-13.4314 0.494227 4.0081e-20)
(-13.7974 0.371878 -4.17092e-20)
(-14.0409 0.240378 -4.16095e-20)
(-14.1471 0.0994955 -5.29779e-20)
(-14.0987 -0.0519788 5.14368e-20)
(-13.887 -0.212568 -2.88206e-20)
(-13.4972 -0.381312 0)
(-12.9118 -0.561948 -8.52146e-21)
(-12.1085 -0.762415 -5.53133e-22)
(-11.0544 -0.995985 4.96903e-21)
(-9.69394 -1.29 -2.12764e-21)
(-7.92624 -1.70687 2.30155e-21)
(-5.59946 -2.32674 0)
(-2.85827 -3.00967 -1.36315e-22)
(-0.301045 1.20313 3.92595e-19)
(-0.908874 1.57242 -3.36343e-19)
(-1.72078 1.77153 9.94774e-20)
(-2.59035 1.89087 1.11341e-19)
(-3.50596 1.95481 -1.50446e-19)
(-4.44242 1.97682 -6.4546e-19)
(-5.38075 1.96514 5.53659e-19)
(-6.30696 1.92546 -1.17039e-19)
(-7.2107 1.86187 1.35898e-19)
(-8.08396 1.77739 -8.23086e-20)
(-8.92006 1.6742 0)
(-9.71273 1.55376 -1.10358e-19)
(-10.4554 1.41692 1.23527e-19)
(-11.1403 1.26407 -1.35792e-19)
(-11.7586 1.09525 0)
(-12.3 0.910514 -8.20859e-20)
(-12.7527 0.710149 0)
(-13.1039 0.494858 8.524e-20)
(-13.3398 0.265959 8.89881e-20)
(-13.4459 0.0253789 4.37617e-20)
(-13.4063 -0.224565 -4.21239e-20)
(-13.215 -0.485926 1.74882e-20)
(-12.8598 -0.759377 -7.40486e-20)
(-12.3287 -1.04904 1.06312e-21)
(-11.6074 -1.36436 7.9353e-21)
(-10.6767 -1.72049 -4.82901e-21)
(-9.50788 -2.14258 0)
(-8.04579 -2.67506 1.93928e-22)
(-6.21991 -3.36665 -1.92888e-22)
(-4.37251 -4.14051 1.24613e-22)
(-0.208084 1.88326 0)
(-0.780781 2.27246 5.89153e-22)
(-1.58352 2.48944 2.53997e-19)
(-2.40954 2.62266 3.35136e-19)
(-3.26458 2.69202 -5.6183e-19)
(-4.13022 2.71048 0)
(-4.99364 2.68736 -1.99046e-19)
(-5.84503 2.62946 1.13938e-19)
(-6.6768 2.54174 0)
(-7.48314 2.4279 7.79054e-19)
(-8.25877 2.29056 -7.49719e-19)
(-8.99818 2.13141 -1.00371e-18)
(-9.69516 1.95136 9.72598e-19)
(-10.3419 1.75059 2.9173e-19)
(-10.9292 1.52883 0)
(-11.4465 1.28566 1.62949e-19)
(-11.8812 1.02077 1.76971e-19)
(-12.2197 0.734231 -1.8368e-19)
(-12.4481 0.426863 2.78245e-19)
(-12.5517 0.100346 -1.87711e-19)
(-12.5151 -0.243168 0)
(-12.3369 -0.599231 9.48848e-22)
(-12.0093 -0.966805 7.65254e-20)
(-11.5259 -1.35084 1.52054e-20)
(-10.88 -1.76289 -1.31218e-20)
(-10.0633 -2.2207 1.20625e-20)
(-9.06591 -2.74769 0)
(-7.86405 -3.37186 0)
(-6.43366 -4.11655 -1.82304e-22)
(-5.11061 -4.91168 0)
(-0.0502525 2.58761 5.36453e-20)
(-0.555818 2.9716 1.39083e-19)
(-1.33767 3.18418 -6.13337e-19)
(-2.10976 3.31541 4.1272e-19)
(-2.89848 3.38042 0)
(-3.68987 3.39035 1.68384e-18)
(-4.47647 3.35428 -1.01753e-18)
(-5.25217 3.27889 0)
(-6.01195 3.169 0)
(-6.75201 3.02838 -1.65889e-18)
(-7.468 2.85926 1.37859e-18)
(-8.1549 2.66288 -1.31342e-18)
(-8.80642 2.43959 1.03071e-18)
(-9.41449 2.18894 1.22794e-20)
(-9.9694 1.9102 0)
(-10.4598 1.60271 0)
(-10.8728 1.26633 -5.60387e-19)
(-11.1943 0.90195 5.72448e-19)
(-11.4099 0.512204 -1.9345e-19)
(-11.505 0.101752 -2.02455e-19)
(-11.4658 -0.323561 0)
(-11.2958 -0.760525 8.62554e-20)
(-10.9902 -1.20644 -8.35551e-20)
(-10.5485 -1.66558 -3.24763e-20)
(-9.97076 -2.1501 2.48865e-21)
(-9.25775 -2.67848 0)
(-8.41249 -3.27108 -9.98061e-22)
(-7.43242 -3.94344 -1.01721e-21)
(-6.31929 -4.70001 -6.49888e-22)
(-5.34909 -5.45537 -4.14497e-23)
(0.149873 3.28647 3.60482e-22)
(-0.265296 3.65127 4.16465e-19)
(-1.01561 3.84791 3.01483e-19)
(-1.72349 3.96729 -7.53144e-19)
(-2.44071 4.02129 0)
(-3.15507 4.01919 -1.72035e-19)
(-3.86316 3.96923 1.69923e-18)
(-4.56196 3.87751 -3.4183e-18)
(-5.24882 3.7484 8.92685e-20)
(-5.92137 3.58517 1.50379e-18)
(-6.57594 3.38939 2.2831e-19)
(-7.20797 3.16164 2.58198e-19)
(-7.81136 2.90166 0)
(-8.37788 2.60841 -3.15808e-19)
(-8.89764 2.28065 0)
(-9.35893 1.91735 -1.15368e-18)
(-9.74842 1.51814 1.17486e-18)
(-10.0514 1.08391 9.51563e-21)
(-10.2526 0.617858 0)
(-10.3371 0.126495 2.19658e-19)
(-10.2919 -0.381189 -3.19312e-19)
(-10.1267 -0.897043 0)
(-9.83937 -1.41585 4.3973e-20)
(-9.43517 -1.94126 0)
(-8.92003 -2.48592 1.52397e-20)
(-8.30101 -3.06815 0)
(-7.58952 -3.70468 4.28693e-21)
(-6.79732 -4.40122 -2.48501e-22)
(-5.9392 -5.14663 -1.02246e-21)
(-5.22627 -5.83959 4.0378e-23)
(0.380321 3.95776 6.30691e-19)
(0.0728827 4.29476 0)
(-0.638859 4.46967 -5.78021e-20)
(-1.27308 4.57126 -3.71376e-20)
(-1.91345 4.6101 1.82553e-18)
(-2.54693 4.5939 -1.56934e-18)
(-3.17355 4.52982 2.73092e-18)
(-3.79286 4.42331 -5.68141e-18)
(-4.40427 4.27796 2.06849e-18)
(-5.0065 4.09592 -1.48581e-18)
(-5.59659 3.87774 2.4314e-18)
(-6.17031 3.62304 0)
(-6.72209 3.33076 -1.34101e-18)
(-7.24383 2.99897 9.63599e-19)
(-7.7255 2.62562 -7.8243e-19)
(-8.15533 2.20919 1.17382e-18)
(-8.51963 1.74908 2.18529e-19)
(-8.80295 1.24649 2.35931e-19)
(-8.98883 0.705983 -4.664e-19)
(-9.06123 0.137395 -2.42049e-19)
(-9.00877 -0.445336 4.62259e-19)
(-8.84699 -1.03153 0)
(-8.57663 -1.61251 4.30896e-20)
(-8.20823 -2.19123 -1.26285e-19)
(-7.75238 -2.78109 1.54655e-20)
(-7.21995 -3.40018 -1.01246e-21)
(-6.62679 -4.06183 4.20562e-21)
(-5.99373 -4.76382 -4.02215e-21)
(-5.34039 -5.48308 0)
(-4.82767 -6.1089 0)
(0.630998 4.58546 1.18109e-18)
(0.444413 4.88916 -3.07619e-20)
(-0.224164 5.0383 5.6428e-20)
(-0.775243 5.118 1.50867e-19)
(-1.33267 5.13941 -4.2855e-19)
(-1.88008 5.10845 -2.64129e-18)
(-2.42103 5.03109 2.29508e-18)
(-2.95705 4.91202 3.572e-19)
(-3.48921 4.75367 -1.47201e-18)
(-4.01722 4.55678 -7.80645e-19)
(-4.53889 4.32063 1.54951e-18)
(-5.05035 4.04371 1.3278e-18)
(-5.54657 3.72417 1.50125e-19)
(-6.02001 3.35908 -1.06429e-18)
(-6.46074 2.94543 0)
(-6.85724 2.48112 4.46509e-19)
(-7.19572 1.96513 -2.30169e-19)
(-7.45994 1.39873 -2.50188e-19)
(-7.63124 0.7876 -7.77287e-21)
(-7.6911 0.144985 5.41451e-19)
(-7.62995 -0.509579 -2.53342e-19)
(-7.47146 -1.16024 0)
(-7.21787 -1.79438 0)
(-6.88503 -2.41497 8.38904e-20)
(-6.48682 -3.03725 -3.91207e-20)
(-6.03557 -3.67959 -1.41901e-20)
(-5.54804 -4.35232 0)
(-5.05047 -5.04633 -3.81352e-21)
(-4.56068 -5.73035 -6.48115e-22)
(-4.21299 -6.29137 7.08257e-22)
(0.893319 5.16342 2.11317e-18)
(0.836499 5.42515 -1.94729e-18)
(0.213304 5.5431 0)
(-0.243616 5.59746 1.89257e-18)
(-0.71094 5.60058 -1.61177e-18)
(-1.16595 5.55562 2.89024e-19)
(-1.61614 5.46687 -3.81637e-19)
(-2.06427 5.33817 0)
(-2.51278 5.17064 0)
(-2.96216 4.96327 0)
(-3.41102 4.71404 0)
(-3.85593 4.42013 3.50141e-19)
(-4.29229 4.07883 0)
(-4.71345 3.68626 -1.71965e-18)
(-5.11015 3.23826 2.16261e-18)
(-5.47134 2.73179 -4.72452e-19)
(-5.78347 2.16519 0)
(-6.02937 1.53941 -2.69466e-19)
(-6.18717 0.861153 -2.93636e-19)
(-6.23439 0.147452 0)
(-6.16475 -0.575505 2.80688e-19)
(-6.01091 -1.28417 0)
(-5.77586 -1.96181 0)
(-5.4801 -2.61282 0)
(-5.13935 -3.25583 0)
(-4.76551 -3.91038 0)
(-4.37332 -4.58409 0)
(-3.99251 -5.26141 8.0734e-21)
(-3.63199 -5.90493 -1.178e-21)
(-3.4265 -6.40524 0)
(1.15395 5.68848 -2.3621e-18)
(1.23098 5.8926 7.89952e-20)
(0.657756 5.97134 0)
(0.310036 5.99825 0)
(-0.0591244 5.98376 3.19989e-19)
(-0.414609 5.92723 -3.73741e-19)
(-0.768693 5.83021 3.98266e-19)
(-1.12432 5.69553 0)
(-1.48478 5.52332 0)
(-1.85114 5.31035 0)
(-2.22256 5.05331 0)
(-2.59629 4.74815 1.2241e-18)
(-2.96805 4.39103 -1.5725e-18)
(-3.33204 3.97738 -1.88529e-18)
(-3.68036 3.50185 1.89343e-18)
(-4.00298 2.96002 0)
(-4.28713 2.349 -5.80399e-19)
(-4.51474 1.66882 5.96035e-19)
(-4.6593 0.926568 3.20369e-19)
(-4.69288 0.143878 0)
(-4.61771 -0.643343 -3.0344e-19)
(-4.47326 -1.40284 1.42833e-19)
(-4.26195 -2.1137 1.21905e-19)
(-4.00722 -2.78396 -5.21382e-20)
(-3.72509 -3.43743 -4.34153e-20)
(-3.42597 -4.09568 0)
(-3.12056 -4.76368 5.58874e-21)
(-2.8419 -5.41975 -8.59774e-21)
(-2.58272 -6.02037 4.12123e-21)
(-2.50201 -6.46336 -8.68015e-22)
(1.39608 6.14643 6.32812e-18)
(1.60766 6.269 -3.04343e-18)
(1.09425 6.30589 -4.42101e-18)
(0.876259 6.30735 4.11833e-18)
(0.61253 6.27788 -3.3484e-19)
(0.363972 6.2141 3.95206e-18)
(0.111071 6.11378 5.6483e-19)
(-0.148185 5.97793 -6.34016e-18)
(-0.416892 5.80602 2.27806e-18)
(-0.696425 5.59274 0)
(-0.986073 5.33331 1.60284e-18)
(-1.28374 5.0228 -1.57908e-18)
(-1.58556 4.65602 1.455e-18)
(-1.88635 4.22773 -1.90458e-18)
(-2.17968 3.73168 4.05532e-20)
(-2.45749 3.16153 -1.13182e-18)
(-2.70929 2.51237 -1.28443e-18)
(-2.91711 1.78287 1.015e-18)
(-3.04758 0.98062 -7.26734e-19)
(-3.06548 0.134305 0)
(-2.98666 -0.711644 1.80907e-19)
(-2.86328 -1.51238 3.15701e-21)
(-2.68651 -2.24577 -2.54393e-19)
(-2.48039 -2.92538 1.73321e-19)
(-2.2596 -3.58133 4.59087e-20)
(-2.03307 -4.23782 1.67486e-20)
(-1.807 -4.89674 -2.98067e-20)
(-1.61801 -5.53081 1.79834e-22)
(-1.43949 -6.08846 1.34169e-21)
(-1.46523 -6.47616 -2.38066e-22)
(1.59146 6.49635 0)
(1.94515 6.52459 -1.20619e-19)
(1.51479 6.53449 -2.55415e-18)
(1.44864 6.51165 5.58508e-18)
(1.29349 6.47345 4.69765e-19)
(1.15909 6.40937 5.37735e-19)
(1.01171 6.31338 -1.70589e-18)
(0.851537 6.18295 -2.27391e-18)
(0.676726 6.01708 0)
(0.486459 5.80928 -7.67611e-19)
(0.281793 5.55286 8.48297e-19)
(0.0643249 5.2424 0)
(-0.162186 4.87187 -8.46995e-21)
(-0.393099 4.43536 1.15273e-18)
(-0.623192 3.92596 -5.60113e-19)
(-0.846606 3.33594 6.57564e-19)
(-1.05731 2.65804 7.05379e-19)
(-1.23946 1.88921 7.7209e-19)
(-1.34462 1.0348 0)
(-1.33612 0.131137 0)
(-1.26921 -0.769781 -3.97902e-19)
(-1.18512 -1.60248 -6.0613e-21)
(-1.06 -2.35022 -6.08358e-21)
(-0.914055 -3.03257 0)
(-0.759308 -3.6863 0)
(-0.603548 -4.33846 -1.81441e-20)
(-0.45055 -4.98756 3.82841e-20)
(-0.337971 -5.60156 -1.12322e-20)
(-0.227849 -6.11836 -1.51545e-21)
(-0.33519 -6.4529 3.63784e-22)
(1.72849 6.68493 4.41497e-18)
(2.24655 6.64631 4.97615e-19)
(1.92484 6.63755 -5.06611e-18)
(2.01053 6.59605 -1.59528e-20)
(1.97542 6.55853 0)
(1.95729 6.50243 0)
(1.9174 6.41932 2.27631e-18)
(1.85695 6.30217 -2.22738e-18)
(1.77626 6.14857 -6.65072e-19)
(1.67606 5.95212 2.28688e-18)
(1.55799 5.70489 -3.66606e-18)
(1.42403 5.40069 1.71597e-18)
(1.27756 5.03338 4.97373e-19)
(1.12288 4.59673 5.53962e-19)
(0.964511 4.08387 0)
(0.807483 3.48704 -6.72174e-19)
(0.654227 2.79798 7.62417e-19)
(0.511692 2.01012 -8.03765e-19)
(0.447612 1.11735 5.6558e-21)
(0.491837 0.146248 0)
(0.518717 -0.801178 2.10653e-19)
(0.54658 -1.66008 -1.7891e-19)
(0.602398 -2.4196 1.55035e-19)
(0.675983 -3.10433 1.20719e-19)
(0.759345 -3.75592 -3.00116e-20)
(0.8462 -4.40303 -2.13779e-20)
(0.931082 -5.04091 -6.42468e-21)
(0.982365 -5.63332 1.10635e-20)
(1.02818 -6.11369 2.92951e-21)
(0.873958 -6.39839 -1.82167e-22)
(1.8399 6.71133 0)
(2.4979 6.62129 2.44044e-18)
(2.33896 6.59197 2.83538e-19)
(2.55558 6.54585 -2.47546e-18)
(2.65415 6.52328 1.78346e-18)
(2.74916 6.48746 -1.72678e-18)
(2.81485 6.42715 0)
(2.852 6.33202 0)
(2.86298 6.19718 9.30969e-19)
(2.85053 6.01655 0)
(2.81735 5.78226 -3.77435e-19)
(2.76617 5.48753 0)
(2.70043 5.12596 0)
(2.62431 4.69122 -2.0481e-18)
(2.54213 4.17654 1.62903e-18)
(2.45888 3.57452 -5.8344e-19)
(2.37737 2.87691 -6.6719e-19)
(2.30425 2.07555 3.55318e-19)
(2.2828 1.17263 -3.97888e-19)
(2.31282 0.197731 -6.49902e-19)
(2.31121 -0.771511 2.52235e-21)
(2.28721 -1.65431 7.76975e-20)
(2.26989 -2.4302 -7.0227e-20)
(2.26674 -3.12431 -2.94133e-21)
(2.27815 -3.78038 -1.18049e-19)
(2.30101 -4.42799 -1.5295e-20)
(2.32797 -5.06071 2.96214e-20)
(2.32991 -5.63755 -3.91215e-21)
(2.32572 -6.0892 2.32419e-21)
(2.13625 -6.33334 7.45613e-23)
(1.89975 6.69059 4.75345e-18)
(2.63005 6.45304 1.54715e-19)
(2.72952 6.39797 0)
(3.07769 6.36307 0)
(3.31965 6.36748 1.95072e-19)
(3.52481 6.36482 0)
(3.69066 6.33767 0)
(3.82068 6.27354 0)
(3.91917 6.16498 3.76058e-20)
(3.99053 6.00571 -6.05001e-19)
(4.03872 5.78866 -7.41402e-19)
(4.06728 5.50708 3.27058e-19)
(4.07985 5.15452 -3.86082e-20)
(4.08045 4.72459 1.35619e-18)
(4.07328 4.21067 -1.01458e-18)
(4.06286 3.60563 2.65753e-19)
(4.05229 2.9013 3.03234e-19)
(4.0454 2.08985 3.26035e-19)
(4.05586 1.17795 -1.70713e-19)
(4.08086 0.201065 1.91299e-19)
(4.05871 -0.756733 1.95885e-21)
(3.98978 -1.63185 0)
(3.9072 -2.40774 5.95417e-20)
(3.83326 -3.10777 -5.49706e-20)
(3.77966 -3.77173 2.42267e-22)
(3.7478 -4.42483 1.74422e-20)
(3.72825 -5.05604 -7.46395e-21)
(3.69135 -5.61984 -6.31829e-21)
(3.64823 -6.04616 -4.26498e-21)
(3.42915 -6.25645 -7.27454e-23)
(9.99384 0.112308 1.98856e-20)
(9.9838 0.223885 1.25427e-21)
(9.96407 0.336324 1.88658e-20)
(9.93514 0.451155 -5.09324e-21)
(9.89844 0.569727 5.12208e-21)
(9.85456 0.693339 0)
(9.80367 0.823242 4.19325e-20)
(9.74582 0.96071 0)
(9.68111 1.10706 -6.41677e-20)
(9.6098 1.2637 -2.14249e-20)
(9.53201 1.4321 4.34517e-20)
(9.44799 1.61386 -4.36972e-19)
(9.35802 1.81071 -1.31042e-19)
(9.26235 2.02452 -3.56976e-19)
(9.16151 2.25749 3.58996e-19)
(9.05601 2.51219 1.81491e-19)
(8.94642 2.79149 -1.72411e-19)
(8.8336 3.09874 3.56511e-19)
(8.71851 3.43799 3.54132e-19)
(8.60179 3.81382 -1.04377e-18)
(8.48537 4.23212 6.79988e-19)
(8.37167 4.70072 -5.76504e-21)
(8.26318 5.22941 6.5774e-19)
(8.16293 5.82996 -6.12309e-19)
(8.07549 6.51757 1.20103e-18)
(8.00784 7.31603 0)
(7.98839 8.26142 -6.98517e-19)
(8.01521 9.41897 4.31924e-19)
(8.69538 10.8422 1.47405e-19)
(9.19079 13.2978 1.53082e-20)
(9.9942 0.116585 -1.88106e-20)
(9.98535 0.232385 6.08456e-22)
(9.96777 0.349043 -1.29296e-22)
(9.94189 0.468125 2.42948e-24)
(9.90912 0.590995 -4.11466e-20)
(9.8701 0.71895 3.12562e-22)
(9.82503 0.853243 -4.02267e-20)
(9.77403 0.995155 2.551e-21)
(9.71725 1.14599 -2.56193e-21)
(9.65499 1.30714 5.18577e-21)
(9.58755 1.48004 -5.20252e-21)
(9.51524 1.66624 2.09899e-21)
(9.43855 1.86743 1.64766e-19)
(9.3579 2.08544 -5.32615e-21)
(9.2739 2.32235 1.06158e-20)
(9.18735 2.58063 0)
(9.09917 2.86305 3.43071e-19)
(9.0106 3.17284 -8.43331e-20)
(8.92299 3.51375 8.37633e-20)
(8.83796 3.89002 5.86455e-19)
(8.75852 4.30709 -8.92246e-19)
(8.68817 4.77202 -6.37888e-19)
(8.63152 5.29355 0)
(8.59522 5.88192 0)
(8.58928 6.54923 2.59348e-19)
(8.62936 7.31213 0)
(8.75551 8.19133 0)
(8.95534 9.2014 -1.19575e-18)
(9.54588 10.282 1.09361e-18)
(10.1403 11.2528 -8.84627e-20)
(9.99458 0.120488 0)
(9.98698 0.240133 -5.89833e-22)
(9.97166 0.360613 -1.84536e-20)
(9.94896 0.483521 0)
(9.9203 0.610228 7.2148e-20)
(9.88633 0.742027 -2.40602e-20)
(9.84729 0.880158 4.90329e-20)
(9.80334 1.0259 -1.9643e-20)
(9.75474 1.18054 0)
(9.70183 1.3454 -1.19291e-19)
(9.64501 1.5219 1.19843e-19)
(9.58475 1.7115 8.16213e-20)
(9.52161 1.91583 8.08858e-20)
(9.45623 2.13662 0)
(9.38936 2.37583 0)
(9.32202 2.63572 3.21248e-19)
(9.25545 2.91888 0)
(9.19122 3.22823 -3.16422e-19)
(9.13123 3.56711 -3.14661e-19)
(9.07789 3.93915 6.19822e-19)
(9.03471 4.3489 6.02396e-19)
(9.00608 4.80207 -1.16762e-18)
(8.998 5.30542 -2.57722e-19)
(9.01885 5.86608 4.54745e-20)
(9.08004 6.49075 -1.37268e-18)
(9.19595 7.18547 3.50869e-18)
(9.39538 7.95183 -1.62562e-18)
(9.65284 8.76775 0)
(10.0716 9.5949 0)
(10.6624 10.3485 0)
(9.99497 0.123973 0)
(9.98868 0.247038 -1.59374e-20)
(9.97569 0.370892 -2.29881e-21)
(9.9563 0.497146 -1.84334e-20)
(9.93189 0.627169 -5.60531e-20)
(9.90314 0.762248 9.37385e-20)
(9.87029 0.903604 0)
(9.83359 1.05249 -2.37751e-22)
(9.79335 1.21015 -3.83628e-20)
(9.75 1.37788 2.31041e-19)
(9.70403 1.55698 -8.16188e-22)
(9.65599 1.74888 7.65076e-20)
(9.60658 1.95506 3.09613e-19)
(9.55656 2.17716 -1.56657e-19)
(9.50691 2.41694 1.55233e-19)
(9.4588 2.67644 -6.18398e-19)
(9.41372 2.95791 -2.51335e-21)
(9.37354 3.26388 3.06846e-19)