# vtk DataFile Version 4.2
vtk output
ASCII
DATASET STRUCTURED_POINTS
DIMENSIONS 102 2 2
SPACING 0.1 0 0
ORIGIN 0 0 0
CELL_DATA 101
FIELD FieldData 3
velocity 1 101 double
10 10.088947043 10.176828725 10.263567555 10.348992756 10.433272579 10.516039882 10.597631238 10.677553588 
10.756247548 10.833151581 10.908758793 10.982484319 11.054833958 11.125233558 11.194172242 11.261110946 11.326501678 
11.389856684 11.451577834 11.511238264 11.569182634 11.6250493 11.679123278 11.731108468 11.781231276 11.829258533 
11.875361586 11.919365506 11.961391861 12.001317893 12.039221794 12.075026061 12.108772573 12.140421702 12.169986422 
12.197457405 12.22282624 12.246106313 12.267275324 12.286361873 12.303337173 12.318237662 12.331035354 12.341767291 
12.350413449 12.357004366 12.361535037 12.364022498 12.364483735 12.362915362 12.359363267 12.353796776 12.346297549 
12.336800806 12.325430796 12.312081871 12.296927608 12.279814828 12.260973056 12.240195053 12.217772715 12.193438459 
12.167552668 12.139781479 12.110559434 12.079480964 12.047059822 12.012814009 11.977340692 11.940077668 11.901708611 
11.861588565 11.820489382 11.777682371 11.734027444 11.688713154 11.642685132 11.595052568 11.546841775 11.497088896 
11.446892649 11.395225933 11.343247754 11.289881701 11.236330437 11.181486999 11.126575853 11.070483807 11.014429268 
10.957323515 10.900344219 10.842465029 10.784780539 10.726372733 10.668202266 10.609514336 10.551075454 10.492358632 
10.433865903 10.375373174 
pressure 1 101 double
-1.6006318506 6.7614852274 15.123602305 23.25441818 31.380919085 39.263051475 47.131326938 54.748369317 62.338329316 
69.674843987 76.968726196 84.01025348 90.992424642 97.725500488 104.38226014 110.79443588 117.11382962 123.1936895 
129.16533665 134.90251041 140.51744905 145.90261829 151.15316915 156.17806711 161.05771654 165.71512196 170.21842329 
174.50214941 178.62464145 182.52952168 186.26766264 189.78953429 193.14064949 196.27633707 199.23857864 201.98587792 
204.55819492 206.91585886 209.0979762 211.06570345 212.85810844 214.43653514 215.84047022 217.03116519 218.04862619 
218.8540896 219.48782836 219.91149372 220.16502461 220.21126355 220.08887305 219.76300255 219.26976126 218.57805251 
217.71982921 216.66951728 215.45299428 214.05228773 212.48497731 210.74306647 208.83332767 206.76039079 204.51744622 
202.12465201 199.55860409 196.85810962 193.97995584 190.98489848 187.80654515 184.53102726 181.06530128 177.52436641 
173.78502476 169.99462412 165.99636056 161.97330842 157.73175717 153.49367431 149.02541046 144.5906544 139.9131907 
135.30077207 130.43255217 125.66203638 120.62242431 115.71381814 110.52308404 105.49670693 100.17600927 95.052349345 
89.623713531 84.423268918 78.909562513 73.652668774 68.077573411 62.784218433 57.172198343 51.861826581 46.238093665 
40.929402109 35.319877188 
crossSection 1 101 double
0.9998194125 1.0007633887 1.0017087024 1.0026291531 1.0035503836 1.0044451256 1.0053394886 1.0062064332 1.0070714112 
1.0079085663 1.0087418919 1.0095473667 1.0103470049 1.0111190154 1.0118831457 1.0126200195 1.0133470188 1.0140472008 
1.0147356272 1.0153976834 1.0160462616 1.0166688832 1.0172764917 1.0178584972 1.0184241576 1.0189644948 1.0194873625 
1.0199851093 1.0204644659 1.0209188306 1.0213540782 1.0217643993 1.0221550559 1.0225208018 1.0228664974 1.0231872659 
1.0234877405 1.0237632577 1.0240183595 1.0242484797 1.024458164 1.0246428694 1.024807198 1.0249465981 1.0250657394 
1.0251600713 1.0252343008 1.025283929 1.0253136293 1.0253190462 1.0253047083 1.0252665343 1.0252087578 1.0251277418 
1.0250272361 1.0249042553 1.0247618405 1.0245979007 1.024414508 1.0242107429 1.0239874155 1.0237450862 1.0234829796 
1.0232034728 1.0229038551 1.0225886813 1.0222529332 1.0219037233 1.0215333377 1.0211518398 1.020748421 1.0203364946 
1.0199017577 1.0194613682 1.018997137 1.0185303477 1.0180385534 1.017547517 1.0170301958 1.016517144 1.0159764342 
1.0154436659 1.0148818051 1.014331673 1.0137509947 1.0131858904 1.01258882 1.0120111578 1.0114002089 1.0108124076 
1.0101901774 1.0095946412 1.0089638064 1.0083629044 1.007726216 1.007122261 1.0064825399 1.0058777653 1.0052378974 
1.004634435 1.0039973658 
