# vtk DataFile Version 4.2
vtk output
ASCII
DATASET STRUCTURED_POINTS
DIMENSIONS 102 2 2
SPACING 0.1 0 0
ORIGIN 0 0 0
CELL_DATA 101
FIELD FieldData 3
velocity 1 101 double
9.0729490169 8.9928278422 8.9142024324 8.8371223753 8.761817685 8.6880734464 8.6163412839 8.5462092389 8.478288025 
8.4120245349 8.3481367328 8.2859765105 8.2263262996 8.1684808874 8.1132521102 8.0599085215 8.0092629274 7.9605824987 
7.9146583036 7.8707757926 7.8296865674 7.7907095235 7.7545434186 7.7205518439 7.6893711492 7.660417455 7.6342584889 
7.6103677473 7.5892410602 7.5704115402 7.5543024131 7.5405063819 7.5293755964 7.5205603616 7.5143452114 7.5104343753 
7.509049888 7.5099447811 7.513285115 7.5188663747 7.5268063562 7.5369356149 7.549332381 7.5638540297 7.5805487412 
7.5992917349 7.6201113281 7.642891004 7.6676499495 7.6942698299 7.722771872 7.7530254294 7.78506528 7.8187376441 
7.8541026124 7.8909722031 7.9294437422 7.969283817 8.0106389736 8.0532190805 8.0972318375 8.1423191695 8.188761674 
8.2361223213 8.2847659937 8.3341660953 8.3847826183 8.4359894146 8.4883516025 8.5411343927 8.5950169454 8.6491479552 
8.7043281008 8.7595832657 8.8158412996 8.8720009705 8.9291206979 8.9859702757 9.0437393671 9.1010698722 9.1592801417 
9.216888724 9.2753363414 9.3330267369 9.391512384 9.4490953204 9.5074243034 9.5647178602 9.6227001886 9.6795301133 
9.736980558 9.7931805381 9.8499186795 9.9053305724 9.9611808503 10.015654869 10.070446643 10.123841496 10.177409132 
10.229592113 10.281775095 
pressure 1 101 double
-89.288560148 -96.777154548 -104.26574895 -111.46476776 -118.65837978 -125.5436255 -132.41292938 -138.96079756 -145.47858924 
-151.66643868 -157.80773461 -163.61422105 -169.35636587 -174.76173882 -180.08451298 -185.07087516 -189.95659496 -194.50812352 
-198.94172705 -203.04485608 -207.01396991 -210.65753389 -214.15251652 -217.32785481 -220.34181413 -223.0428373 -225.57162051 
-227.79483959 -229.83699519 -231.58151574 -233.13822806 -234.40571138 -235.48070908 -236.2753034 -236.87474419 -237.20298902 
-237.33532316 -237.20603048 -236.88184621 -236.30596217 -235.53781652 -234.52826741 -233.33050578 -231.90203222 -230.29060028 
-228.45958314 -226.45183439 -224.23611605 -221.85061819 -219.26932232 -216.52566524 -213.59901792 -210.51762611 -207.26678069 
-203.86873215 -200.31560003 -196.62245369 -192.78954257 -188.82317583 -184.73343668 -180.51589442 -176.19257796 -171.74593398 
-167.21245702 -162.55868886 -157.83851072 -152.99938841 -148.1158969 -143.11288607 -138.08929267 -132.94347242 -127.80271583 
-122.53471137 -117.29936848 -111.92929877 -106.62150197 -101.16894218 -95.81030185 -90.29426057 -84.905791598 -79.344702588 
-73.946753661 -68.358481702 -62.970666388 -57.372526797 -52.013655395 -46.422446512 -41.110457892 -35.542505734 -30.294398571 
-24.765612613 -19.597375656 -14.123314483 -9.0498558402 -3.645801106 1.3191231733 6.6380862768 11.481943714 16.70084156 
21.412393904 26.516277479 
crossSection 1 101 double
0.99000048799 0.98916865777 0.98833787551 0.98754020498 0.98674409774 0.9859830183 0.98522457818 0.98450244214 0.98378441131 
0.98310345511 0.98242832083 0.98179063275 0.98116062129 0.9805681134 0.97998518386 0.9794395683 0.97890540703 0.97840817633 
0.97792419248 0.97747660399 0.97704392684 0.97664699107 0.97626646924 0.97592094198 0.97559314497 0.97529952308 0.97502474512 
0.97478326571 0.97456153192 0.97437217475 0.97420324962 0.97406574234 0.97394914034 0.97386296637 0.97379796442 0.97376237308 
0.97374802474 0.9737620433 0.97379719433 0.97385964164 0.97394294664 0.97405244797 0.97418238784 0.97433739062 0.97451229052 
0.97471108068 0.97492912819 0.97516984676 0.97542911008 0.97570976982 0.97600821563 0.97632671746 0.97666222838 0.97701637741 
0.97738676879 0.97777428977 0.97817732567 0.97859587778 0.97902928609 0.97947647697 0.97993796342 0.98041136235 0.98089862348 
0.98139577378 0.9819065087 0.98242493925 0.98295686014 0.98349409621 0.98404493754 0.98459851083 0.98516603731 0.98573349543 
0.98631550849 0.9868944239 0.98748876687 0.98807674542 0.98868130729 0.98927599645 0.98988871419 0.9904878111 0.9911066706 
0.99170793013 0.99233096571 0.99293220849 0.99355750102 0.99415662163 0.99478229537 0.99537727079 0.99600148886 0.99659038712 
0.9972113459 0.99779233503 0.99840825737 0.99897961467 0.99958874229 1.0001488637 1.0007494488 1.0012968586 1.001887155 
1.0024205152 1.0029987692 
