# vtk DataFile Version 4.2
vtk output
ASCII
DATASET STRUCTURED_POINTS
DIMENSIONS 102 2 2
SPACING 0.1 0 0
ORIGIN 0 0 0
CELL_DATA 101
FIELD FieldData 3
velocity 1 101 double
12.427050983 12.465915649 12.501531312 12.53541153 12.566100681 12.594998673 12.620782981 12.644714628 12.665622219 
12.684615843 12.700681963 12.71477732 12.726044904 12.735292413 12.741812573 12.746272733 12.74810517 12.747848165 
12.745061514 12.740166962 12.73283908 12.723395914 12.711614129 12.697720569 12.681581896 12.663345497 12.642956819 
12.62049457 12.595972804 12.569411258 12.540883484 12.510358901 12.477962468 12.443620953 12.407503553 12.369501174 
12.32982087 12.288323743 12.245248951 12.200433278 12.154142695 12.106194739 12.056877201 12.005993191 11.953847455 
11.900233409 11.845467854 11.78933931 11.732171539 11.673753185 11.614409533 11.553934732 11.492649665 11.430359862 
11.367375268 11.30351929 11.239083658 11.173916888 11.108284376 11.042067816 10.975497213 10.908496432 10.84125002 
10.773733994 10.706076311 10.63831616 10.570512689 10.502780332 10.435096113 10.367662838 10.300361038 10.233496011 
10.166836453 10.100805182 10.035042867 9.9701056339 9.9054892644 9.8418995498 9.7786700926 9.7166730031 9.6550623027 
9.5948930282 9.5351224989 9.4770048136 9.4192842323 9.3634290582 9.3079554787 9.2545595271 9.2015163358 9.1507608405 
9.1003169717 9.0523665266 9.0046758508 8.9596773609 8.9148782589 8.8729600122 8.8311751443 8.792446009 8.753782284 
8.7183310316 8.6828797792 
pressure 1 101 double
225.02971773 228.47215521 231.9145927 234.91242605 237.87645299 240.43085463 242.91991106 245.03238079 247.05109339 
248.72362507 250.27761452 251.5128266 252.6085635 253.40979802 254.05450082 254.42589612 254.62746432 254.57400695 
254.34098269 253.8685436 253.21009557 252.32545496 251.251379 249.96224337 248.48297525 246.79798931 244.9246257 
242.85338122 240.59770543 238.15074822 235.52525818 232.71409392 229.73202994 226.56912898 223.24449962 219.74330069 
216.09090487 212.26581707 208.30126129 204.16766378 199.90737302 195.48161143 190.94283273 186.24221141 181.44300924 
176.48577832 171.44502076 166.250357 160.98769201 155.57567254 150.11149381 144.50306181 138.85846361 133.07538514 
127.2721059 121.33691738 115.39727185 109.33321756 103.2800176 97.110977086 90.967441475 84.717846602 78.507500302 
72.202242266 65.948806045 59.613132573 53.340403994 46.999807397 40.731534514 34.411631365 28.171380723 21.897784151 
15.708804916 9.5069906853 3.392076946 -2.7127553637 -8.7314018976 -14.714471191 -20.615375722 -26.452463699 -32.21500761 
-37.882603625 -43.487145941 -48.962590966 -54.390579456 -59.65220784 -64.886277229 -69.913555099 -74.937609927 -79.711269332 
-84.5105491 -89.012717251 -93.573841677 -97.788164934 -102.09915732 -106.01091997 -110.06120687 -113.65744508 -117.43783066 
-120.70744246 -124.21005619 
crossSection 1 101 double
1.025883763 1.0262874981 1.0266914716 1.0270434647 1.0273916664 1.027691889 1.0279845582 1.0282330454 1.0284705884 
1.0286674584 1.0288504257 1.0289958949 1.0291249641 1.0292193586 1.0292953214 1.0293390852 1.0293628384 1.0293565388 
1.0293290791 1.0292734099 1.0291958302 1.0290916138 1.028965102 1.0288132899 1.0286391286 1.028440801 1.0282203682 
1.0279767338 1.0277115038 1.0274238984 1.0271154432 1.026785328 1.026435318 1.0260642784 1.0256744833 1.0252642264 
1.0248365151 1.0243888678 1.023925208 1.0234421137 1.0229445705 1.0224280866 1.0218988199 1.0213511139 1.0207923755 
1.0202157202 1.0196298495 1.0190266186 1.0184160368 1.0177886989 1.0171559028 1.0165070144 1.0158545685 1.0151867672 
1.0145172949 1.0138332902 1.0131494642 1.0124520286 1.0117565593 1.0110485178 1.010344142 1.0096283611 1.0089178287 
1.0081972044 1.0074832651 1.0067607101 1.0060460991 1.0053245294 1.004611953 1.003894274 1.0031863946 1.0024754869 
1.0017749081 1.0010736127 1.0003828648 0.9996939686 0.99901549434 0.99834171501 0.99767785606 0.99702182779 0.99637481202 
0.99573907109 0.99511100113 0.99449797208 0.9938908152 0.99330279738 0.99271837703 0.99215753187 0.99159752097 0.99106585978 
0.99053177608 0.99003114855 0.98952435219 0.98905643545 0.98857812885 0.98814441717 0.98769564748 0.98729744232 0.98687910642 
0.98651750693 0.98613035926 
