# vtk DataFile Version 4.2
vtk output
ASCII
DATASET STRUCTURED_POINTS
DIMENSIONS 102 2 2
SPACING 0.1 0 0
ORIGIN 0 0 0
CELL_DATA 101
FIELD FieldData 3
velocity 1 101 double
10.927050983 11.006098773 11.083074832 11.15857809 11.231867222 11.30366301 11.373145567 11.441090694 11.506658215 
11.570627953 11.632182859 11.692069653 11.749525069 11.805237298 11.858516941 11.909977775 11.959015884 12.006162257 
12.050903534 12.093685253 12.134084812 12.172463803 12.208487117 12.242436804 12.274059644 12.303564456 12.330772841 
12.355827829 12.378617976 12.399228533 12.417606817 12.43378849 12.447771416 12.45954979 12.469163982 12.476574629 
12.481856835 12.484945311 12.485942422 12.484764307 12.481533391 12.476154358 12.468762706 12.4592586 12.447783779 
12.434240717 12.418770616 12.401285077 12.381917958 12.360596862 12.33744139 12.312402159 12.285577421 12.256948004 
12.22658349 12.194502352 12.160737908 12.125353968 12.088339702 12.049812208 12.009708345 11.968206684 11.925183364 
11.880886793 11.835123805 11.788221096 11.73990754 11.690596536 11.639930407 11.588417479 11.535605181 11.482104578 
11.427360352 11.372093448 11.315638726 11.258833159 11.200895835 11.142784535 11.083598167 11.024418283 10.964221228 
10.904212945 10.843247431 10.782652697 10.721163848 10.660225015 10.598459838 10.537418216 10.475624563 10.414718925 
10.353144441 10.292609464 10.231500543 10.17156523 10.111165986 10.052052067 9.9926033399 9.9345236816 9.8762620912 
9.8194191437 9.7625761963 
pressure 1 101 double
85.52876847 92.846553985 100.1643395 107.14040636 114.10083704 120.72527895 127.31529033 133.57881575 139.78753584 
145.68152929 151.50003136 157.01661678 162.43769043 167.5697894 172.58773562 177.32911631 181.93956934 186.28488423 
190.48466089 194.42947325 198.21644872 201.75724878 205.13025684 208.26446956 211.22322473 213.9492111 216.49424987 
218.81130403 220.94394224 222.85228627 224.57459015 226.07536836 227.3901366 228.4854106 229.3961655 230.08891115 
230.59989677 230.89400366 231.01018967 230.91046348 230.63755297 230.14972077 229.49416129 228.62487953 227.59387594 
226.35074085 224.95226928 223.34382895 221.58665101 219.6224184 217.51609485 215.20656092 212.76146411 210.11810998 
207.34543432 204.38074138 201.29251123 198.01996814 194.62904245 191.06314773 187.38322082 183.53947983 179.58507782 
175.47999287 171.26646519 166.91751766 162.46102322 157.8866464 153.20413407 148.42367568 143.5328589 138.56653214 
133.48585751 128.35467982 123.10328973 117.82900833 112.4266979 107.03170142 101.49887006 96.006085889 90.363684181 
84.796460982 79.065933521 73.447909009 67.651134329 62.006088198 56.165316856 50.517009261 44.654801457 39.026797544 
33.165961741 27.581443003 21.744977133 16.226540609 10.43757751 5.0070240948 -0.71121719244 -6.0331038018 -11.657359299 
-16.851041209 -22.358034435 
crossSection 1 101 double
1.0097211949 1.01055951 1.0113988695 1.0122000075 1.0130002988 1.0137628409 1.0145222743 1.0152448747 1.0159619146 
1.0166433101 1.0173166507 1.0179556703 1.0185842129 1.0191797871 1.0197626193 1.0203137879 1.0208501654 1.021356084 
1.0218454154 1.0223053603 1.0227471944 1.0231605659 1.0235545816 1.0239209066 1.0242669048 1.0245858381 1.0248837354 
1.0251550601 1.0254048852 1.025628513 1.0258304027 1.0260063735 1.0261605714 1.0262890532 1.0263959082 1.0264771963 
1.0265371626 1.0265716796 1.0265853159 1.0265736114 1.0265415819 1.0264843323 1.0264074067 1.0263054154 1.0261844693 
1.0260386667 1.0258746824 1.0256861259 1.0254801923 1.0252500663 1.0250033792 1.0247329949 1.0244468564 1.0241376516 
1.0238134699 1.0234670078 1.0231062957 1.0227242636 1.0223286373 1.0219128446 1.0214840213 1.0210363969 1.0205761924 
1.0200987808 1.0196091058 1.0191040628 1.0185869195 1.0180565061 1.017513983 1.016960559 1.0163948262 1.0158208419 
1.0152341448 1.0146421315 1.0140367847 1.0134293441 1.0128077242 1.0121875164 1.0115520546 1.0109217842 1.010274959 
1.0096373603 1.008981689 1.0083395097 1.0076775406 1.0070335245 1.0063678288 1.0057246965 1.0050578607 1.0044182898 
1.0037529083 1.0031195122 1.0024581806 1.0018334864 1.0011787956 1.0005652217 0.99991975256 0.99931958456 0.99868590442 
0.99810127178 0.99748193148 
