# vtk DataFile Version 4.2
vtk output
ASCII
DATASET STRUCTURED_POINTS
DIMENSIONS 102 2 2
SPACING 0.1 0 0
ORIGIN 0 0 0
CELL_DATA 101
FIELD FieldData 3
velocity 1 101 double
7.5729490169 7.639110782 7.7079097856 7.7771119419 7.8485473797 7.9204123668 7.994131318 8.0682848293 8.1439401679 
8.2200136847 8.2972653625 8.3748983205 8.4534144393 8.5322560307 8.6117137358 8.6914243584 8.7715105811 8.8517629555 
8.9321750257 9.0126550111 9.093101157 9.1735083012 9.2537080497 9.33375591 9.4134403985 9.4928566748 9.5717688829 
9.6502954024 9.7281903128 9.8055829024 9.8822276007 9.9582558811 10.033429607 10.107876738 10.181370895 10.254033301 
10.325651444 10.39633854 10.465896335 10.534430275 10.601755469 10.667970921 10.732903305 10.796647278 10.859038675 
10.920170384 10.979884652 11.038275444 11.095188509 11.150721832 11.204721751 11.257293176 11.30828023 11.357797508 
11.405684314 11.45206747 11.49677913 11.539960574 11.581434825 11.621359476 11.65954686 11.696172264 11.73103629 
11.764332726 11.795850022 11.825800574 11.853961015 11.880561605 11.905368411 11.928627775 11.950097566 11.970037162 
11.988199955 12.004853795 12.019752947 12.033167342 12.044859423 12.055092638 12.063647219 12.070769028 12.076268402 
12.080359553 12.082898356 12.084049933 12.083734685 12.08204738 12.07899593 12.074579243 12.068920115 12.061891466 
12.053763111 12.044246915 12.033796857 12.021923553 12.009307424 11.995212496 11.980592965 11.964415981 11.947961554 
11.929845246 11.911728938 
pressure 1 101 double
-232.23517772 -225.72486757 -219.21455742 -212.45071366 -205.66444791 -198.67985159 -191.65676333 -184.4838482 -177.26225358 
-169.93296776 -162.55012335 -155.09580705 -147.58771498 -140.03899185 -132.44025084 -124.82693117 -117.17062994 -109.52162463 
-101.83927323 -94.182518099 -86.504012054 -78.866402074 -71.220013978 -63.627347664 -56.03974057 -48.516674447 -41.012931873 
-33.582944856 -26.186612553 -18.871979809 -11.605115013 -4.4268905893 2.689884997 9.7118776953 16.659324303 23.506495398 
30.266703456 36.92169423 43.478036353 49.92471311 56.261801179 62.485246737 68.588895043 74.575399112 80.432594089 
86.169643691 91.768520383 97.244791216 102.57461633 107.77996572 112.83112688 117.75658862 122.52058935 127.1583703 
131.62783002 135.97130834 140.13996646 144.18369079 148.04641421 151.78610303 155.33889591 158.771436 162.01145118 
165.13489398 168.06044501 170.87399953 173.48457255 175.98859358 178.2848583 180.4808285 182.46464753 184.35515202 
186.02958826 187.61828042 188.98760186 190.27915927 191.3488411 192.34891055 193.12563418 193.84076522 194.33241411 
194.76998064 194.98563284 195.15374263 195.10365986 195.01105244 194.70666544 194.36259919 193.81648902 193.23061879 
192.45649338 191.63874085 190.65140579 189.61182515 188.42714734 187.17579004 185.81065209 184.35743496 182.82967769 
181.18425985 179.51260953 
crossSection 1 101 double
0.9743012379 0.975008097 0.97571572562 0.97645172797 0.97719100737 0.97795276952 0.97871962818 0.97950377804 0.98029420198 
0.98109739171 0.9819074491 0.9827263668 0.98355222823 0.98438360889 0.98522156336 0.986062199 0.98690866601 0.98775541526 
0.98860695329 0.98945675027 0.99031006218 0.99115992482 0.99201186059 0.99285889818 0.99370645561 0.99454787555 0.99538819929 
0.99622131315 0.99705169264 0.99787392129 0.99869178796 0.99950066597 1.0003035901 1.0010967694 1.001882457 1.0026577098 
1.0034239996 1.004179221 1.0049240817 1.0056572917 1.0063788201 1.0070881654 1.007784585 1.0084683405 1.0091380005 
1.009794571 1.0104359465 1.0110638682 1.0116755604 1.0122735027 1.0128542402 1.0134210073 1.0139696481 1.0145041809 
1.0150197137 1.0155210917 1.0160026393 1.0164700823 1.0169169035 1.0173497733 1.017761266 1.0181590679 1.0185347718 
1.0188971552 1.0192367545 1.0195635134 1.0198668391 1.0201579116 1.0204249437 1.0206804106 1.0209112795 1.0211313617 
1.0213263499 1.0215114048 1.0216709472 1.0218214634 1.0219461478 1.0220627386 1.022153305 1.0222367002 1.0222940399 
1.0223450762 1.0223702306 1.0223898401 1.022383998 1.0223731957 1.0223376911 1.0222975605 1.0222338691 1.0221655471 
1.0220752821 1.0219799431 1.0218648507 1.0217436891 1.021605643 1.0214598573 1.0213008516 1.0211316275 1.0209537688 
1.0207622641 1.0205677616 
