# vtk DataFile Version 4.2
vtk output
ASCII
DATASET STRUCTURED_POINTS
DIMENSIONS 102 2 2
SPACING 0.1 0 0
ORIGIN 0 0 0
CELL_DATA 101
FIELD FieldData 3
velocity 1 101 double
8.2366442431 8.1725724965 8.1111315759 8.0515032425 7.9946891006 7.9397149435 7.8876947377 7.8375576002 7.7904755367 
7.7453293796 7.7033050495 7.6632742333 7.6264013652 7.5915802148 7.5599258407 7.5303785159 7.5039825394 7.4797432242 
7.4586183732 7.4396917831 7.4238239223 7.4101861162 7.3995348924 7.3911343688 7.3856341545 7.3823932004 7.381954299 
7.383770559 7.3882806318 7.3950288556 7.4043545311 7.4158884608 7.4298770833 7.4460314388 7.4645129175 7.4851054402 
7.5078941609 7.5327276766 7.5596244426 7.5884889088 7.6192828777 7.6519573854 7.6864279736 7.7226826784 7.7606014072 
7.8001993698 7.841331631 7.8840305504 7.9281372761 7.9736911037 8.0205303247 8.068690752 8.1180190365 8.1685368525 
8.2201106174 8.2727369352 8.3263136261 8.3808009833 8.4361401203 8.4922434572 8.5491075492 8.6065850718 8.6647404012 
8.7233543378 8.7825716212 8.8420888798 8.9021438115 8.9623365497 9.0230102339 9.0836563513 9.1447356307 9.2056191956 
9.2668968847 9.3278085027 9.3890835388 9.4498206729 9.5108981911 9.5712654424 9.6319567871 9.6917661454 9.751888825 
9.8109598984 9.8703374936 9.9284977206 9.9869597586 10.044044608 10.101426414 10.157279577 10.21342211 10.26789568 
10.322645371 10.375600026 10.428808614 10.480113792 10.531638179 10.581172242 10.630874382 10.678524771 10.72627159 
10.771934957 10.817598324 
pressure 1 101 double
-168.78455497 -174.74024451 -180.69593405 -186.23338763 -191.7547501 -196.8560884 -201.92271164 -206.5718294 -211.16630725 
-215.34915297 -219.4571252 -223.16192631 -226.77210442 -229.98954002 -233.0937126 -235.81703597 -238.41004969 -240.63516299 
-242.71487655 -244.44036067 -246.00757107 -247.23467377 -248.29301513 -249.02560138 -249.58141799 -249.82588648 -249.88808254 
-249.65325273 -249.23312186 -248.53009625 -247.64113449 -246.4831406 -245.14084665 -243.54306344 -241.76473015 -239.74410318 
-237.54860422 -235.12365375 -232.53122895 -229.72185503 -226.7538977 -223.58118573 -220.2600348 -216.7460648 -213.09480409 
-209.2624663 -205.30473309 -201.17755218 -196.93735634 -192.53932601 -188.04088115 -183.39631033 -178.66387738 -173.7972491 
-168.85499293 -163.79083618 -158.6626954 -153.42547016 -148.13504001 -142.74903517 -137.31946341 -131.80870693 -126.26260254 
-120.65078306 -115.01013745 -109.32053622 -103.60665659 -97.862088534 -92.095543202 -86.318305748 -80.518881132 -74.730709213 
-68.917378476 -63.139404115 -57.33030729 -51.583022229 -45.795457765 -40.098677615 -34.349105255 -28.721933667 -23.025988695 
-17.486780076 -11.859298996 -6.4256183614 -0.88067602771 4.4307451657 9.8797871219 15.053100057 20.39353384 25.413826986 
30.633528713 35.486888527 40.574238315 45.247816215 50.19160911 54.67369454 59.463043463 63.743142428 68.367374743 
72.436292751 76.884842375 
crossSection 1 101 double
0.98122333153 0.98057046843 0.97991825669 0.97931242986 0.97870892269 0.97815182155 0.97759898222 0.97709211081 0.97659158372 
0.97613623464 0.97568934626 0.97528658024 0.974894341 0.9745449719 0.97420807956 0.9739126642 0.97363150918 0.97339034187 
0.97316501462 0.97297812585 0.9728084265 0.9726755854 0.97256103556 0.97248175576 0.97242161226 0.97239516072 0.97238843127 
0.97241383962 0.97245929984 0.9725353778 0.97263158963 0.97275694007 0.97290227093 0.97307530621 0.97326794883 0.97348690799 
0.97372490039 0.97398786681 0.97426911232 0.97457403163 0.97489631854 0.97524101633 0.97560203708 0.97598423625 0.9763816059 
0.97679894341 0.97723021727 0.97768026012 0.97814295038 0.97862321066 0.97911480209 0.97962275098 0.98014071549 0.98067379623 
0.9812156063 0.98177124601 0.98233438713 0.98291000749 0.9834919894 0.98408501629 0.98468338319 0.9852912553 0.98590359499 
0.98652377143 0.98714772339 0.98777769056 0.98841095299 0.98904823067 0.98968856648 0.99033071338 0.99097595518 0.99162057398 
0.99226862798 0.99291337024 0.99356221903 0.99420478984 0.99485249419 0.99549065692 0.99613535632 0.99676693754 0.99740684965 
0.99802974439 0.99866316325 0.9992753407 0.99990063376 1.0005001436 1.0011157474 1.0017007267 1.0023051415 1.0028738226 
1.0034656054 1.0040163244 1.0045940814 1.005125287 1.0056876643 1.0061979285 1.0067436025 1.0072316309 1.0077592971 
1.0082239401 1.0087323023 
