# vtk DataFile Version 4.2
vtk output
ASCII
DATASET STRUCTURED_POINTS
DIMENSIONS 102 2 2
SPACING 0.1 0 0
ORIGIN 0 0 0
CELL_DATA 101
FIELD FieldData 3
velocity 1 101 double
12.853169549 12.865819431 12.875055899 12.882638026 12.88694605 12.889532562 12.888990857 12.886665167 12.881358768 
12.874214674 12.864235806 12.852376852 12.837825643 12.8213647 12.80234976 12.781408785 12.758047667 12.732757595 
12.705177172 12.675677906 12.644014665 12.610455142 12.57485541 12.537393696 12.498013808 12.456817211 12.413823618 
12.36906879 12.322638102 12.27451111 12.224830081 12.173526431 12.120791866 12.06651647 12.010935058 11.953902112 
11.895690171 11.836122955 11.775506083 11.713636658 11.65084928 11.586918075 11.522202884 11.456458174 11.390065453 
11.322762714 11.254949548 11.186350692 11.117380052 11.047752544 10.977892262 10.907508113 10.837029741 10.766164396 
10.695341957 10.624273071 10.553381716 10.482387846 10.411702426 10.341061632 10.270855201 10.200843591 10.131385861 
10.062276083 9.9938318454 9.925891557 9.8587190969 9.7922094186 9.726558947 9.6617329344 9.5978450541 9.5349462006 
9.4730504373 9.4123112313 9.35262465 9.2942652036 9.2369911338 9.1812179027 9.126544792 9.073549401 9.0216498172 
8.9716080045 8.9226378007 8.8757084912 8.8298061491 8.7861306626 8.7434168228 8.7031182219 8.6636954096 8.6268779862 
8.5908305335 8.5575794339 8.5249735999 8.495354581 8.4662388673 8.4402981764 8.4147038312 8.3924681972 8.370409902 
8.3518866274 8.3333633529 
pressure 1 101 double
264.21497879 265.22017201 266.22536524 266.78895547 267.31371674 267.44069921 267.49489748 267.19077472 266.78505738 
266.05599984 265.20167662 264.05464044 262.76361397 261.20642482 259.49115753 257.53256866 255.40607687 253.05580809 
250.5316756 247.80043837 244.89284294 241.79235565 238.5161032 235.05909937 231.4296613 227.62989263 223.66344307 
219.53567816 215.24912806 210.80914727 206.22017322 201.48475956 196.6118252 191.59875072 186.46111942 181.18912632 
175.80686371 170.29563939 164.68960466 158.95974969 153.15157482 147.22456308 141.23661919 135.1347493 128.99009968 
122.73643699 116.45877649 110.07708526 103.69066596 97.20533131 90.734874485 84.170814189 77.641409221 71.023975355 
64.460966101 57.815837165 51.244696799 44.597761007 38.04395653 31.421187325 24.910035241 18.337360309 11.893875233 
5.3970404867 -0.95422126713 -7.3497910666 -13.584890717 -19.854232872 -25.950008814 -32.068763221 -38.002988583 -43.947535905 
-49.699071475 -55.446666992 -60.995606906 -66.5245082 -71.85231587 -77.141902615 -82.231534446 -87.262418793 -92.098433441 
-96.8525597 -101.42121079 -105.88194348 -110.17125396 -114.32345363 -118.32327006 -122.15335675 -125.85538228 -129.3513868 
-132.74919168 -135.90079545 -138.98980422 -141.78836872 -144.56582359 -147.00441094 -149.46931089 -151.54269761 -153.69571285 
-155.40039912 -157.24376098 
crossSection 1 101 double
1.030493601 1.0306122626 1.0307309447 1.0307974961 1.0308594682 1.0308744652 1.0308808662 1.0308449488 1.0307970358 
1.0307109464 1.0306100791 1.0304746752 1.0303223057 1.0301385682 1.0299362353 1.0297052732 1.0294545994 1.029177653 
1.0288803436 1.0285587851 1.028216629 1.027851962 1.0274668331 1.0270606911 1.02663455 1.026188694 1.0257235899 
1.0252399057 1.0247379774 1.0242184718 1.0236819481 1.0231287452 1.0225599447 1.0219752811 1.0213766108 1.0207628304 
1.0201367828 1.0194963313 1.0188454807 1.0181808986 1.0175078959 1.016821811 1.0161293774 1.0154244969 1.0147154154 
1.0139945165 1.0132716235 1.0125375431 1.0118037172 1.0110593415 1.0103174919 1.0095657444 1.0088187979 1.0080626266 
1.0073135138 1.0065558782 1.0058075185 1.0050513755 1.0043066616 1.0035549516 1.002816733 1.002072365 1.0013434322 
1.0006092691 0.99989233635 0.99917118045 0.99846886975 0.99776344835 0.99707827306 0.99639122448 0.99572557397 0.9950594342 
0.99441555918 0.99377274935 0.99315274829 0.9925355631 0.99194136992 0.99135196709 0.99078534041 0.99022573136 0.98968824539 
0.98916028713 0.98865332434 0.98815871272 0.98768345858 0.98722372279 0.9867811625 0.98635766084 0.98594857826 0.98556249508 
0.98518747391 0.98483981767 0.98449924489 0.98419084698 0.98388491859 0.98361643303 0.98334516215 0.98311706556 0.98288029289 
0.9826928848 0.98249029143 
