# vtk DataFile Version 4.2
vtk output
ASCII
DATASET STRUCTURED_POINTS
DIMENSIONS 102 2 2
SPACING 0.1 0 0
ORIGIN 0 0 0
CELL_DATA 101
FIELD FieldData 3
velocity 1 101 double
10 9.9119584791 9.8242240783 9.7376013269 9.6516200969 9.566747399 9.4828110199 9.4000114495 9.318408333 
9.2379951156 9.1590078569 9.0812826168 9.005185479 8.9304364183 8.8574928826 8.7859929388 8.7164533569 8.6484583877 
8.582557773 8.5183048165 8.4562608057 8.3959664616 8.3379774802 8.2818364536 8.228080111 8.1762639541 8.1268956926 
8.0795517753 8.0347037897 7.9919545211 7.9517349618 7.9136772756 7.8781697404 7.8448748534 7.8141381665 7.7856516092 
7.759719881 7.7360617928 7.7149447454 7.6961104221 7.6797939653 7.6657546378 7.6542016705 7.6449054938 7.6380569054 
7.6334301305 7.6312059742 7.6311542743 7.6334550807 7.6378650027 7.6445732042 7.6533137165 7.66429515 7.6772192574 
7.6923247173 7.7092711167 7.7283379298 7.7491326804 7.7719862776 7.7964444648 7.8228999269 7.8508272997 7.8806908571 
7.9118854227 7.9449558921 7.9792094553 8.0152796007 8.0523792357 8.0912370434 8.1309664911 8.1723963513 8.2145373352 
8.2583211274 8.3026545849 8.3485726639 8.3948798908 8.4427119761 8.4907756827 8.5403016535 8.5899069331 8.6409075349 
8.6918427438 8.744100213 8.7961577655 8.8494563792 8.9024334562 8.9565600181 9.0102591926 9.0650034618 9.1192332421 
9.1743883177 9.2289636076 9.2843262783 9.3390687567 9.3944398259 9.4491782458 9.5043628416 9.5589332483 9.6137411301 
9.6679869992 9.7222328683 
pressure 1 101 double
-1.8145091641 -10.048957025 -18.283404886 -26.375432297 -34.474405852 -42.398131678 -50.328379079 -58.057407194 -65.786867217 
-73.294642367 -80.792521185 -88.05266916 -95.289544748 -102.27619617 -109.22414315 -115.91223964 -122.54496741 -128.91054854 
-135.20354572 -141.2240147 -147.15469329 -152.80905931 -158.35689257 -163.62598761 -168.77263613 -173.63930407 -178.36872552 
-182.81798194 -187.11652049 -191.13568154 -194.99213416 -198.57091381 -201.97657111 -205.10714644 -208.05580704 -210.73285171 
-213.22080972 -215.44149673 -217.46750276 -219.23147776 -220.79667469 -222.10600195 -223.21383728 -224.07292064 -224.72903771 
-225.14451939 -225.35663016 -225.33727034 -225.11501297 -224.67155338 -224.02633752 -223.17135224 -222.11619554 -220.86393211 
-219.4132911 -217.77950503 -215.94910358 -213.950889 -211.7575473 -209.41316629 -206.87463308 -204.20334602 -201.33813663 
-198.36003527 -195.18727761 -191.92312249 -188.46241297 -184.93347637 -181.20474739 -177.43266243 -173.45606275 -169.46267935 
-165.25846836 -161.06571613 -156.6541729 -152.28393093 -147.68527838 -143.15925173 -138.39359632 -133.73319876 -128.82048556 
-124.04672819 -119.00671109 -114.14009626 -108.9923228 -104.05274287 -98.81655288 -93.823193516 -88.517730543 -83.488978087 
-78.133212334 -73.086565337 -67.699326503 -62.651311418 -57.251329683 -52.217421075 -46.823374148 -41.817920035 -36.448483958 
-31.484637158 -26.158538319 
crossSection 1 101 double
0.999795286 0.9988670602 0.99794012646 0.99703048111 0.9961212997 0.99523299439 0.99434514715 0.99348097058 0.99261787189 
0.99178060368 0.99094549592 0.99013787116 0.98933381744 0.98855849373 0.98778836864 0.98704789569 0.98631437489 0.9856111668 
0.98491671606 0.98425302634 0.98359989071 0.98297779012 0.98236798384 0.98178934114 0.98122463873 0.98069110449 0.98017303345 
0.97968602696 0.97921586239 0.97877656161 0.97835532298 0.97796465767 0.97759310792 0.97725175575 0.97693040271 0.97663878838 
0.97636788857 0.97612618559 0.97590575027 0.97571388549 0.97554368886 0.97540134924 0.97528093854 0.97518758005 0.97511628739 
0.97507114584 0.97504810149 0.97505020476 0.97507435157 0.97512253324 0.975192642 0.97528555583 0.97540024119 0.97553637642 
0.97569411316 0.97587181016 0.97607094948 0.97628841571 0.97652720136 0.97678252729 0.97705911123 0.97735028613 0.97766274359 
0.97798767102 0.97833401478 0.97869052768 0.97906872124 0.97945459658 0.97986256636 0.98027553923 0.98071118541 0.9811489626 
0.98161016872 0.98207044175 0.98255508287 0.98303554055 0.98354148996 0.98403983047 0.98456496489 0.98507890745 0.98562111085 
0.98614840701 0.98670557283 0.98724401753 0.98781404958 0.98836149187 0.98894230381 0.98949665739 0.99008617101 0.99064542455 
0.99124156686 0.99180379418 0.99240449353 0.99296786344 0.99357104484 0.99413383076 0.99473741066 0.99529799987 0.99589988047 
0.99645678281 0.99705484649 
