# vtk DataFile Version 4.2
vtk output
ASCII
DATASET STRUCTURED_POINTS
DIMENSIONS 102 2 2
SPACING 0.1 0 0
ORIGIN 0 0 0
CELL_DATA 101
FIELD FieldData 3
velocity 1 101 double
7.1468304511 7.1896206612 7.2360294317 7.2833425396 7.3339222311 7.385437027 7.4398716058 7.4952564228 7.5532241548 
7.612140207 7.6733159497 7.7354204352 7.799477721 7.864426654 7.9310395666 7.9984903143 8.0673351675 8.1369486789 
8.2077055064 8.2791482309 8.3515021008 8.4244476013 8.4980897669 8.5722200435 8.6468489413 8.7218554855 8.7971775892 
8.872762196 8.9484927373 9.0243681016 9.1002316664 9.1761217923 9.2518528022 9.3274932544 9.4028363429 9.477974367 
9.5526846591 9.6270791957 9.7009225026 9.7743441182 9.8470970566 9.9193278103 9.9907778583 10.061611121 10.13155662 
10.200796864 10.26904698 10.336509541 10.402884191 10.468395031 10.532724788 10.596120244 10.658246235 10.719372779 
10.779146563 10.83786057 10.895144034 10.951311563 11.005976812 11.059473409 11.111402675 11.162113184 11.211198749 
11.259017163 11.305161296 11.349990614 11.39310553 11.434857653 11.474865487 11.513461133 11.550293936 11.585662581 
11.619262322 11.651342173 11.68166076 11.710398755 11.737398056 11.762749887 11.78640176 11.808331929 11.828618237 
11.847100142 11.864012761 11.879028806 11.892569612 11.90411135 11.914292177 11.922360481 11.929203035 11.933808305 
11.937344039 11.938506429 11.938776351 11.936526037 11.933580462 11.927957935 11.921856152 11.912912544 11.903722409 
11.891519844 11.879317278 
pressure 1 101 double
-273.67156902 -269.33342324 -264.99527746 -260.25587127 -255.48817787 -250.37653712 -245.21373837 -239.75970356 -234.23693674 
-228.47092724 -222.62367061 -216.57646361 -210.44021637 -204.1427412 -197.75274018 -191.23588825 -184.62686285 -177.92131309 
-171.12727854 -164.26333825 -157.317426 -150.32488697 -143.2592101 -136.16721982 -129.01277051 -121.84971856 -114.63629406 
-107.42971352 -100.18586699 -92.96235072 -85.715362946 -78.500494521 -71.276362984 -64.094661775 -56.918103387 -49.792983324 
-42.687447772 -35.641188948 -28.628879828 -21.682612047 -14.78451341 -7.9582106435 -1.1941169166 5.493398459 12.104850841 
18.635895194 25.077195808 31.435203965 37.68993719 43.859435846 49.912251323 55.878827216 61.71541272 67.465676572 
73.072733847 78.594281014 83.959505049 89.24087368 94.352935807 99.38356323 104.23209835 109.00227634 113.57787451 
118.078704 122.37290647 126.5962523 130.60155206 134.53999827 138.24984511 141.89665116 145.30546107 148.65451977 
151.75768828 154.80348574 157.59740495 160.33498344 162.81706193 165.24198618 167.41067122 169.51899907 171.3738 
173.16205838 174.70356995 176.16873723 177.39866145 178.53815745 179.45932226 180.27100714 180.88737992 181.36956361 
181.68625742 181.837721 181.86099095 181.6810218 181.41824916 180.90669143 180.36635263 179.52367482 178.71529254 
177.54267366 176.47674725 
crossSection 1 101 double
0.96982023068 0.97028791532 0.97075593834 0.9712676387 0.97178280148 0.97233558416 0.97289437807 0.97348521722 0.97408405076 
0.97470984888 0.97534508102 0.97600268871 0.97667065921 0.97735689366 0.97805395018 0.97876561263 0.97948813434 0.98022202639 
0.98096644424 0.98171938308 0.98248219663 0.98325102923 0.98402882041 0.9848104366 0.98559988044 0.98639122487 0.98718909778 
0.98798718078 0.98879036647 0.98959227367 0.99039776721 0.99120066805 0.99200557835 0.99280673331 0.99360828443 0.99440505109 
0.99520058252 0.99599042047 0.99677738675 0.99755786138 0.99833383129 0.99910261652 0.99986527195 1.0006201519 1.0013672867 
1.0021061567 1.0028356751 1.0035565416 1.0042664576 1.0049674377 1.0056558736 1.0063351934 1.0070003795 1.0076563728 
1.0082966465 1.0089277522 1.0095415582 1.010146318 1.0107322085 1.0113092636 1.011865899 1.0124139873 1.012940137 
1.0134580894 1.0139526336 1.0144393708 1.0149013023 1.0153558312 1.0157842572 1.0162056674 1.0165998129 1.016987273 
1.0173464833 1.0176992376 1.0180229816 1.0183403469 1.0186282207 1.0189095835 1.0191613138 1.0194061276 1.0196215754 
1.0198293585 1.0200085223 1.0201788567 1.0203218756 1.0204544062 1.0205615623 1.020655997 1.020727717 1.0207838283 
1.0208206842 1.0208383118 1.02084102 1.0208200749 1.0207894941 1.0207299642 1.0206670907 1.0205690489 1.0204750104 
1.0203386237 1.0202146701 
