# vtk DataFile Version 4.2
vtk output
ASCII
DATASET STRUCTURED_POINTS
DIMENSIONS 102 2 2
SPACING 0.1 0 0
ORIGIN 0 0 0
CELL_DATA 101
FIELD FieldData 3
velocity 1 101 double
11.763355757 11.68498662 11.604886062 11.52475695 11.4432366 11.361643347 11.278969835 11.196213268 11.11266197 
11.029047306 10.944901416 10.860737536 10.776286942 10.691885521 10.607425498 10.523099974 10.438929729 10.354994109 
10.271415172 10.188182676 10.105497182 10.023278748 9.9417875984 9.8608902567 9.780891217 9.701616365 9.6234020925 
9.5460436962 9.469899746 9.3947425023 9.3209453316 9.2482628229 9.1770778275 9.1071307069 9.0388103213 8.9718445618 
8.9066264533 8.8428716967 8.7809770852 8.7206451222 8.6622772521 8.605560664 8.5509034535 8.4979744402 8.4471913286 
8.398200745 8.3514337544 8.3065103704 8.2638793934 8.223129389 8.1847317083 8.1482384082 8.1141484498 8.0819722977 
8.0522416133 8.0244203804 7.9990778507 7.9756270679 7.9546793146 7.9355929138 7.9190249027 7.9042760495 7.8920518671 
7.8815939635 7.8736577443 7.8674255778 7.8637025607 7.8616135763 7.8620112663 7.8639669339 7.868376347 7.8742636003 
7.8825605678 7.8922532885 7.9042998007 7.917660324 7.9333058942 7.950186513 7.9692695427 7.9895139895 8.0118631226 
8.0353080081 8.0607434596 8.0872196535 8.1155545038 8.1448884394 8.1759298863 8.2079447788 8.241495342 8.2760123078 
8.3118709824 8.3487100525 8.3866734109 8.4256544295 8.4655176711 8.5064610778 8.5480190287 8.5907465196 8.633794584 
8.6781296515 8.7224647189 
pressure 1 101 double
162.88202298 155.55330799 148.224593 140.7559419 133.25866671 125.67044026 118.034614 110.34873415 102.60433986 
94.844132198 87.02116516 79.211189754 71.339672638 63.505545857 55.615518564 47.783727043 39.905210622 32.10291816 
24.265853435 16.520701365 8.7548637743 1.0947654595 -6.5703416842 -14.117411314 -21.65268238 -29.058900963 -36.435769204 
-43.673683063 -50.864273959 -57.907014139 -64.884307125 -71.705802944 -78.443797663 -85.018985111 -91.492868236 -97.797890385 
-103.98419916 -109.99659567 -115.87337445 -121.5722573 -127.11920359 -132.48541635 -137.68401325 -142.70027138 -147.53390367 
-152.18491371 -156.63896543 -160.91152146 -164.9734532 -168.85650915 -172.51591406 -176.00063119 -179.2492691 -182.32903846 
-185.16084823 -187.83128817 -190.24237884 -192.5013085 -194.48993037 -196.33732015 -197.90381734 -199.34171797 -200.4884644 
-201.52091635 -202.25223743 -202.88516284 -203.20724512 -203.44832439 -203.36911597 -203.22765139 -202.75675546 -202.24352423 
-201.39208838 -200.51918733 -199.299791 -198.08047531 -196.50701765 -194.95553572 -193.04312571 -191.1745522 -188.93940285 
-186.76947179 -184.22879973 -181.7737395 -178.94567087 -176.22204256 -173.12552596 -170.15006686 -166.80479347 -163.59426687 
-160.02059773 -156.59165056 -152.81055036 -149.17957999 -145.21255668 -141.395588 -137.26463693 -133.27721134 -129.00476245 
-124.86183975 -120.47070609 
crossSection 1 101 double
1.0186357566 1.0177861077 1.0169375214 1.0160738235 1.0152079215 1.0143326417 1.0134530136 1.0125687744 1.0116789732 
1.0107885311 1.0098920771 1.0089983009 1.0080986819 1.0072045302 1.0063052001 1.0054136986 1.0045180732 1.0036322917 
1.0027437416 1.0018667711 1.000988613 1.0001235425 0.99925902837 0.99840892189 0.99756122623 0.99672910018 0.99590130637 
0.99509010717 0.99428519279 0.99349777516 0.99271859691 0.99195770289 0.99120698138 0.99047522051 0.98975552535 0.98905535602 
0.98836909161 0.98770280396 0.98705219624 0.98642189682 0.98580898128 0.98521657956 0.98464319083 0.98409038789 0.98355815103 
0.98304643044 0.98255675415 0.98208737514 0.98164144694 0.98121544001 0.98081422343 0.98043238829 0.98007662214 0.97973952796 
0.97942972749 0.97913771551 0.97887417548 0.97862736367 0.97841016308 0.97820845287 0.97803746124 0.97788054608 0.97775543105 
0.97764280658 0.97756304259 0.97749401833 0.97745889616 0.97743260838 0.97744124531 0.97745667098 0.97750802132 0.97756399287 
0.97765685865 0.97775207937 0.97788512095 0.97801818088 0.97818992731 0.97835931933 0.97856817832 0.97877231443 0.97901658177 
0.97925380924 0.97953167753 0.979800295 0.98010986171 0.98040813485 0.98074740959 0.98107358642 0.98144049752 0.98179282312 
0.98218522343 0.982561954 0.98297762615 0.98337704223 0.98381370334 0.98423412213 0.98468942814 0.98512921476 0.98560076461 
0.98605834207 0.98654368188 
