# vtk DataFile Version 4.2
vtk output
ASCII
DATASET STRUCTURED_POINTS
DIMENSIONS 102 2 2
SPACING 0.1 0 0
ORIGIN 0 0 0
CELL_DATA 101
FIELD FieldData 3
velocity 1 101 double
9.0729490169 8.9928176729 8.9142023407 8.8371124797 8.7618175421 8.6880638075 8.6163411229 8.5461998439 8.4782878718 
8.4120153754 8.3481366064 8.2859675826 8.2263262125 8.1684721914 8.1132520686 8.0599000616 8.0092629325 7.960574282 
7.9146583529 7.8707678276 7.8296866562 7.7907018191 7.754543541 7.7205444087 7.6893712981 7.6604102972 7.6342586563 
7.6103608741 7.5892412381 7.5704049568 7.5543025938 7.5405000908 7.5293757728 7.5205543628 7.5143453765 7.5104286665 
7.5090500348 7.5099393577 7.5132852366 7.5188612299 7.5268064458 7.5369307396 7.5493324315 7.5638494129 7.5805487451 
7.599287364 7.6201112774 7.6428868645 7.6676498358 7.6942659054 7.7227716869 7.7530217013 7.7850650153 7.8187340919 
7.8541022601 7.8909688045 7.9294432942 7.9692805489 8.010638421 8.0532159199 8.0972311706 8.1423160942 8.1887608818 
8.2361193099 8.284765065 8.334163127 8.3847815421 8.435986469 8.4883503685 8.5411314501 8.5950155439 8.6491449973 
8.7043265222 8.7595802758 8.8158395346 8.8719979334 8.9291187382 8.9859671772 9.0437372063 9.1010666985 9.1592777757 
9.2168854632 9.2753337677 9.3330233792 9.3915096011 9.4490918592 9.5074213114 9.564714291 9.62269699 9.6795264331 
9.7369771575 9.7931767458 9.8499150839 9.9053266693 9.9611770675 10.015650858 10.070442683 10.123837384 10.177405004 
10.229587907 10.281770811 
pressure 1 101 double
-89.291078308 -96.779590569 -104.26810283 -111.46739346 -118.66058109 -125.54643429 -132.41498838 -138.96378405 -145.48051495 
-151.66959844 -157.80953504 -163.61755035 -169.3580482 -174.76523436 -180.08608378 -185.0745339 -189.95806035 -194.51194249 
-198.94309284 -203.04883227 -207.01524169 -210.66166418 -214.15369967 -217.33213599 -220.34291384 -223.04726603 -225.57264183 
-227.79941242 -229.83794302 -231.58622909 -233.13910717 -234.41056154 -235.4815241 -236.28028659 -236.87549959 -237.20810136 
-237.33602326 -237.21126802 -236.88249523 -236.31132085 -235.53841855 -234.53374307 -233.33106484 -231.90762057 -230.29112029 
-228.46527978 -226.45231919 -224.24191647 -221.85107153 -219.27522188 -216.52609079 -213.60501192 -210.51802739 -207.27286438 
-203.86911249 -200.32176869 -196.62281617 -192.79579155 -188.82352327 -184.73976143 -180.51622937 -176.19897397 -171.74625876 
-167.21891988 -162.55900564 -157.84503604 -152.99969917 -148.12248035 -143.11319264 -138.09593002 -132.94377647 -127.80940297 
-122.53501444 -117.30610141 -111.92960229 -106.62827677 -101.16924751 -95.817114698 -90.294568999 -84.912638796 -79.345015304 
-73.953631683 -68.358799775 -62.977571898 -57.372851204 -52.020585215 -46.422778183 -41.117408971 -35.54284557 -30.301367986 
-24.765961454 -19.604360634 -14.123673068 -9.056853753 -3.6461700706 1.3121148573 6.6377063867 11.474927493 16.700450293 
21.40537229 26.5158745 
crossSection 1 101 double
0.9900002081 0.98916838735 0.98833761453 0.98753991422 0.98674385428 0.98598270801 0.98522435098 0.98450211295 0.98378419928 
0.98310310757 0.982428123 0.98179026729 0.98116043679 0.98056773041 0.97998501191 0.97943916812 0.97890524688 0.97840775928 
0.97792404344 0.9774761704 0.97704378825 0.97664654125 0.97626634046 0.97592047624 0.9755930254 0.97529904175 0.97502463417 
0.97478276912 0.97456142902 0.97437166322 0.97420315424 0.97406521621 0.97394905194 0.97386242598 0.97379788251 0.97376181876 
0.97374794883 0.97376147542 0.97379712396 0.97385906054 0.97394288135 0.974051854 0.97418232718 0.97433678416 0.97451223407 
0.97471046211 0.97492907553 0.97516921648 0.9754290608 0.97570912823 0.97600816933 0.97632606499 0.97666218468 0.97701571447 
0.97738672732 0.97777361679 0.9781772861 0.97859519518 0.97902924811 0.97947578516 0.97993792675 0.98041066174 0.98089858788 
0.98139506478 0.98190647392 0.98242422228 0.98295682596 0.98349337166 0.98404490377 0.98459777912 0.98516600376 0.98573275695 
0.98631547499 0.98689367906 0.98748873326 0.9880759946 0.98868127342 0.98927524003 0.98988867991 0.99048704948 0.99110663579 
0.99170716367 0.99233093023 0.99293143753 0.99355746477 0.99415584653 0.99478225823 0.99537649188 0.99600145075 0.99658960473 
0.9972113067 0.99779154947 0.99840821701 0.99897882625 0.99958870068 1.0001480727 1.0007494059 1.0012960654 1.0018871107 
1.0024197201 1.0029987235 
