/*--------------------------------*- C++ -*----------------------------------*\
| =========                 |                                                 |
| \\      /  F ield         | OpenFOAM: The Open Source CFD Toolbox           |
|  \\    /   O peration     | Version:  2006                                  |
|   \\  /    A nd           | Website:  www.openfoam.com                      |
|    \\/     M anipulation  |                                                 |
\*---------------------------------------------------------------------------*/
FoamFile
{
    version     2.0;
    format      ascii;
    class       volVectorField;
    location    "0.5";
    object      U;
}
// * * * * * * * * * * * * * * * * * * * * * * * * * * * * * * * * * * * * * //

dimensions      [0 1 -1 0 0 0 0];


internalField   nonuniform List<vector> 
2790
(
(9.94395 -5.66451e-22 0.019598)
(9.88171 -5.18627e-21 0.0276921)
(9.79073 4.39871e-21 0.033125)
(9.67734 0 0.0387079)
(9.54733 0 0.0445119)
(9.40168 -3.16917e-22 0.05047)
(9.23953 6.5351e-22 0.0566971)
(9.05994 -6.75439e-22 0.0633425)
(8.86203 0 0.0705352)
(8.6448 0 0.0783962)
(8.40703 2.44581e-20 0.0870537)
(8.14725 -2.50976e-20 0.0966476)
(7.86385 6.62519e-21 0.107331)
(7.55506 0 0.119268)
(7.21904 1.46739e-20 0.132628)
(6.85394 0 0.14758)
(6.45807 0 0.16427)
(6.03003 -7.02617e-20 0.182799)
(5.56895 0 0.203187)
(5.0748 -3.27082e-19 0.225318)
(4.54869 3.45617e-19 0.248855)
(3.99323 1.89114e-19 0.273139)
(3.41297 0 0.297043)
(2.81475 0 0.3187)
(2.20823 0 0.334888)
(1.60691 -5.40366e-19 0.339675)
(1.03038 -5.92385e-19 0.321418)
(0.513283 0 0.256865)
(0.0963506 -6.93068e-19 0.112865)
(-0.0159807 -7.30073e-19 -0.128097)
(9.99864 2.82351e-21 0.0378441)
(9.98777 -2.85951e-21 0.0566821)
(9.95177 -9.03445e-21 0.0706362)
(9.89274 -5.84019e-23 0.0853029)
(9.81508 9.06158e-21 0.100904)
(9.71984 -3.10229e-22 0.117244)
(9.60635 -6.38885e-22 0.134543)
(9.47373 1.97222e-21 0.153128)
(9.32114 0 0.173292)
(9.14759 0 0.195315)
(8.95187 -5.82238e-21 0.219491)
(8.73255 6.05373e-21 0.246136)
(8.48799 -6.3237e-21 0.275584)
(8.21641 0 0.308179)
(7.91593 -6.99038e-20 0.34425)
(7.58463 5.76859e-20 0.384081)
(7.22067 0 0.427858)
(6.82246 6.51889e-20 0.475592)
(6.38889 0 0.527025)
(5.91954 5.96811e-19 0.581491)
(5.41508 -6.25238e-19 0.637739)
(4.87757 -1.69763e-19 0.693737)
(4.31085 1.8392e-18 0.746478)
(3.72086 -1.56896e-18 0.791669)
(3.11591 -4.3041e-18 0.823152)
(2.50666 4.32065e-19 0.831896)
(1.90539 8.63652e-18 0.804314)
(1.32609 -4.43563e-18 0.719978)
(0.761916 6.10249e-19 0.554384)
(0.34428 1.36419e-18 0.257645)
(9.9957 -1.12569e-21 0.0383772)
(9.98171 1.14205e-21 0.065758)
(9.94738 3.48229e-21 0.0892034)
(9.8926 -2.35627e-21 0.113558)
(9.82041 1.80878e-21 0.139441)
(9.73196 1.85172e-21 0.166769)
(9.6269 -1.27481e-21 0.195832)
(9.50452 -8.70911e-24 0.227087)
(9.36412 0 0.260985)
(9.2049 0 0.297983)
(9.02582 5.74422e-21 0.338565)
(8.82567 -5.95798e-21 0.383254)
(8.60301 -2.46897e-20 0.432611)
(8.35627 0 0.487217)
(8.08373 -2.17705e-19 0.547642)
(7.78359 5.0744e-19 0.614395)
(7.45404 -2.3426e-19 0.687847)
(7.09336 -5.04194e-19 0.768109)
(6.70011 1.58521e-18 0.854873)
(6.27325 2.3861e-20 0.94719)
(5.81252 2.4222e-20 1.0432)
(5.31853 -1.24919e-18 1.13983)
(4.79303 2.38067e-18 1.23244)
(4.23907 -5.77912e-18 1.31454)
(3.6609 3.86857e-18 1.37716)
(3.06326 0 1.4084)
(2.44953 0 1.3931)
(1.82095 0 1.31392)
(1.15202 0 1.16139)
(0.561561 -1.9956e-17 0.915464)
(9.9941 1.06092e-24 0.0427962)
(9.97783 -1.74533e-24 0.0800477)
(9.94313 -1.16458e-21 0.11405)
(9.88934 2.34572e-21 0.14828)
(9.81858 -4.80952e-21 0.183931)
(9.73193 1.83208e-21 0.221325)
(9.62925 -6.16296e-22 0.26091)
(9.51002 1.29465e-21 0.303282)
(9.37367 1.33615e-20 0.34906)
(9.21958 1.12131e-20 0.398878)
(9.04696 -2.24668e-20 0.453408)
(8.85486 1.06287e-19 0.513368)
(8.64216 -7.19975e-20 0.579536)
(8.40765 0 0.652729)
(8.14999 -5.24234e-20 0.733766)
(7.86775 -3.4605e-22 0.823415)
(7.55948 4.64172e-19 0.922302)
(7.22373 -3.56369e-19 1.03077)
(6.85909 0 1.14866)
(6.46436 0 1.27506)
(6.0386 0 1.40793)
(5.58119 -5.91499e-19 1.54377)
(5.09181 0 1.67716)
(4.57047 5.41843e-18 1.80045)
(4.01719 -1.14965e-17 1.90343)
(3.4312 1.23491e-17 1.97329)
(2.80939 -6.64307e-18 1.99526)
(2.14752 0 1.95466)
(1.41517 -1.6026e-17 1.84842)
(0.716006 1.8062e-17 1.66339)
(9.99334 -5.60419e-22 0.0486724)
(9.97577 5.66673e-22 0.0942122)
(9.94076 -1.1514e-21 0.137281)
(9.8878 0 0.180403)
(9.81846 1.79304e-21 0.225095)
(9.73361 -1.82311e-21 0.272027)
(9.63317 -5.0142e-21 0.321772)
(9.51672 2.52574e-21 0.375006)
(9.38375 1.855e-20 0.432444)
(9.23371 -2.15007e-20 0.494837)
(9.06594 -1.1134e-20 0.562977)
(8.87965 -1.15592e-20 0.637713)
(8.67393 -1.92732e-19 0.719966)
(8.4478 -5.30473e-20 0.810718)
(8.2002 2.55148e-19 0.910965)
(7.93003 -5.36455e-20 1.02167)
(7.63615 -1.10894e-19 1.14368)
(7.31741 9.39406e-19 1.27759)
(6.97259 -7.21558e-19 1.42348)
(6.60047 0 1.58069)
(6.19974 0 1.74736)
(5.76892 5.67142e-19 1.92009)
(5.30618 0 2.09348)
(4.80919 6.25548e-19 2.2598)
(4.27474 -6.64861e-19 2.4088)
(3.69824 -1.15132e-17 2.52801)
(3.0729 -8.80143e-19 2.60354)
(2.3929 2.66803e-17 2.62151)
(1.63085 9.7705e-19 2.57821)
(0.855457 -1.73901e-17 2.46638)
(9.993 0 0.0552155)
(9.97484 -1.13056e-21 0.10848)
(9.93988 1.1429e-21 0.160166)
(9.88796 0 0.21213)
(9.82034 -4.64721e-24 0.265882)
(9.73768 1.21592e-21 0.322287)
(9.6399 -3.7347e-21 0.38203)
(9.52667 5.03799e-21 0.445858)
(9.3975 -2.59223e-21 0.514578)
(9.25189 3.77332e-20 0.589047)
(9.08926 -3.26455e-20 0.670171)
(8.90893 0 0.758917)
(8.71008 0 0.856338)
(8.49189 4.86062e-20 0.96356)
(8.25345 -4.9934e-20 1.08173)
(7.99381 1.03535e-19 1.21198)
(7.71202 9.82028e-19 1.35538)
(7.40708 -1.00373e-18 1.51276)
(7.07784 -2.35587e-19 1.68451)
(6.72304 2.42707e-19 1.87035)
(6.34113 -2.06306e-18 2.06887)
(5.93001 2.12179e-18 2.27717)
(5.48684 0 2.49042)
(5.00771 -5.9618e-19 2.70149)
(4.48728 6.30329e-19 2.9008)
(3.9187 0 3.07643)
(3.2934 1.21354e-17 3.21477)
(2.6055 8.31389e-20 3.30064)
(1.83631 -2.7456e-17 3.32363)
(0.999018 1.52896e-17 3.2845)
(9.99289 -1.66301e-21 0.0620377)
(9.97462 1.68131e-21 0.122748)
(9.94009 0 0.182604)
(9.88945 5.79833e-22 0.243066)
(9.82383 -5.86249e-22 0.305543)
(9.74371 -1.1964e-21 0.371034)
(9.64905 -1.22165e-21 0.440347)
(9.53955 1.24946e-21 0.514325)
(9.41476 2.57387e-21 0.593868)
(9.27421 5.28336e-21 0.679921)
(9.11742 5.39454e-21 0.773486)
(8.94374 1.10974e-20 0.875634)
(8.75245 2.08097e-19 0.987528)
(8.54278 3.29169e-21 1.11042)
(8.31398 -1.93489e-19 1.24559)
(8.06511 -1.01674e-19 1.39433)
(7.79526 0 1.5579)
(7.50347 8.76633e-19 1.73742)
(7.1885 -6.6911e-19 1.93364)
(6.84901 -2.12473e-18 2.14674)
(6.4832 3.41224e-18 2.37595)
(6.08846 -2.01235e-18 2.61912)
(5.66123 -5.24439e-19 2.87241)
(5.19651 0 3.12972)
(4.68767 0 3.3824)
(4.12651 0 3.61904)
(3.50349 -6.46042e-19 3.8254)
(2.81222 0 3.98349)
(2.04738 -1.175e-17 4.07155)
(1.15262 1.36151e-17 4.09792)
(9.99291 -2.6751e-22 0.0689149)
(9.97487 -1.96089e-21 0.136847)
(9.94111 -2.82522e-21 0.204463)
(9.89201 2.86365e-21 0.273039)
(9.82867 0 0.343898)
(9.75146 -1.19683e-21 0.418116)
(9.66034 1.33805e-20 0.496608)
(9.55505 -1.1101e-20 0.580315)
(9.43521 0 0.670217)
(9.30038 0 0.767335)
(9.15013 8.04962e-20 0.872753)
(8.9839 -9.66443e-21 0.987639)
(8.80098 -2.93178e-19 1.11325)
(8.60075 2.06619e-19 1.25096)
(8.38249 4.79025e-20 1.4022)
(8.14524 4.94087e-19 1.56843)
(7.88809 -3.01279e-19 1.75113)
(7.61001 8.44567e-19 1.9517)
(7.30964 -1.07537e-18 2.17129)
(6.98554 -2.21553e-19 2.41065)
(6.63559 6.96276e-19 2.66976)
(6.25671 -3.8677e-18 2.94747)
(5.84473 9.39737e-19 3.24111)
(5.39388 4.12132e-18 3.54593)
(4.89653 0 3.85442)
(4.34342 -9.68808e-18 4.15559)
(3.72404 1.0168e-17 4.43395)
(3.0297 0 4.66806)
(2.27102 -1.80277e-19 4.82242)
(1.31731 -1.91764e-19 4.9072)
(9.99303 2.20727e-21 0.0757064)
(9.97546 2.77439e-21 0.150625)
(9.94275 1.97421e-21 0.225622)
(9.89545 -2.56944e-21 0.30192)
(9.83466 0 0.380783)
(9.76072 2.3657e-21 0.463336)
(9.67353 -2.38934e-21 0.550578)
(9.5729 0 0.643532)
(9.45853 0 0.743263)
(9.33005 0 0.850861)
(9.18703 0 0.967483)
(9.029 0 1.09438)
(8.85533 0 1.23291)
(8.66547 -4.51522e-20 1.38454)
(8.45872 3.74065e-19 1.55088)
(8.23414 -4.74147e-19 1.73358)
(7.99083 -8.88899e-19 1.93435)
(7.72763 7.99537e-19 2.15488)
(7.44315 1.67128e-18 2.39678)
(7.1358 -1.26699e-18 2.66144)
(6.80311 -4.3905e-19 2.94972)
(6.4416 3.19778e-18 3.26162)
(6.04654 -4.18499e-18 3.59589)
(5.61146 0 3.94934)
(5.12776 0 4.3159)
(4.58486 5.29105e-19 4.6853)
(3.97068 8.47953e-18 5.04073)
(3.27144 1.03657e-20 5.35762)
(2.51302 -1.00552e-17 5.58662)
(1.49394 0 5.73142)
(9.99322 -4.36953e-21 0.0823166)
(9.9763 -2.21527e-21 0.163956)
(9.94489 0 0.245965)
(9.89964 0 0.329578)
(9.84166 1.14433e-21 0.416033)
(9.77128 0 0.506491)
(9.68841 0 0.602018)
(9.59287 -8.51786e-21 0.703701)
(9.48444 1.10409e-20 0.812674)
(9.36285 0 0.930111)
(9.22771 -6.39896e-22 1.05723)
(9.0786 8.47271e-20 1.19536)
(8.915 -8.55083e-20 1.34592)
(8.73639 4.40436e-20 1.51052)
(8.54211 -3.63541e-19 1.69092)
(8.33132 3.66843e-19 1.88897)
(8.10314 7.62517e-19 2.1066)
(7.85639 -8.47677e-20 2.34587)
(7.58965 -5.91702e-19 2.60884)
(7.30116 -2.0527e-19 2.89761)
(6.9882 4.15702e-19 3.21403)
(6.64702 4.31195e-19 3.55942)
(6.27245 0 3.93418)
(5.8573 0 4.33704)
(5.39184 0 4.76393)
(4.86365 2.31994e-19 5.20605)
(4.25807 1.31228e-19 5.64623)
(3.55309 0 6.05802)
(2.78659 8.81851e-18 6.38018)
(1.68978 -5.74477e-20 6.60502)
(9.99345 4.50329e-21 0.0886769)
(9.97733 1.91479e-21 0.176737)
(9.94743 1.38443e-22 0.265382)
(9.90444 0 0.35589)
(9.84952 -2.28211e-21 0.449499)
(9.78299 3.46878e-21 0.547399)
(9.70478 -2.33746e-21 0.650709)
(9.61473 1.17961e-21 0.76057)
(9.51268 1.19991e-21 0.87817)
(9.39845 0 1.00475)
(9.27176 4.12923e-20 1.1416)
(9.13225 4.19969e-20 1.29011)
(8.97944 -8.36296e-20 1.45177)
(8.81288 -1.09475e-20 1.62831)
(8.63203 0 1.82162)
(8.43618 -3.60324e-19 2.03373)
(8.2245 1.09792e-18 2.26684)
(7.9959 -7.38179e-19 2.52334)
(7.74897 -1.71837e-18 2.80581)
(7.48186 1.5366e-18 3.11708)
(7.19183 -5.23484e-21 3.46006)
(6.87505 0 3.83753)
(6.52608 3.25495e-18 4.25179)
(6.13715 -6.59259e-18 4.70402)
(5.69738 -2.78073e-21 5.19301)
(5.19195 3.20479e-18 5.713)
(4.6025 1.12611e-19 6.24851)
(3.89561 0 6.77401)
(3.11678 -7.80648e-18 7.2196)
(1.92187 8.35899e-18 7.56649)
(9.99371 3.38284e-23 0.0947356)
(9.97851 -2.22108e-21 0.188883)
(9.95028 0 0.283773)
(9.90977 -8.30208e-22 0.380744)
(9.85813 -2.80995e-22 0.481047)
(9.7957 0 0.585896)
(9.72244 0 0.696455)
(9.63824 -2.36518e-21 0.813911)
(9.54299 2.36239e-21 0.939491)
(9.43656 0 1.07448)
(9.31881 3.49603e-20 1.22024)
(9.18947 -3.51467e-20 1.37822)
(9.04811 0 1.54999)
(8.89437 -7.93811e-21 1.73735)
(8.72788 1.608e-19 1.94229)
(8.54806 -1.72259e-19 2.16703)
(8.35421 0 2.414)
(8.14539 1.34515e-19 2.68593)
(7.92036 8.95408e-20 2.98592)
(7.67736 0 3.31751)
(7.41389 -9.67337e-20 3.68467)
(7.1263 0 4.09171)
(6.80925 -1.84636e-19 4.5431)
(6.45485 3.02148e-18 5.04302)
(6.05138 -3.04475e-18 5.59435)
(5.5817 -6.02579e-18 6.19661)
(5.02291 1.07854e-19 6.83984)
(4.32682 1.70397e-19 7.5048)
(3.54073 6.74304e-18 8.11826)
(2.21745 5.06392e-20 8.65641)
(9.99401 6.72105e-23 0.100453)
(9.9798 2.09043e-21 0.200323)
(9.9534 0 0.301053)
(9.91554 1.10673e-21 0.40404)
(9.86737 8.37555e-22 0.510556)
(9.80927 -2.81489e-21 0.621839)
(9.74122 2.29993e-21 0.739085)
(9.66317 2.31184e-21 0.863518)
(9.57506 -4.74016e-21 0.996399)
(9.47684 9.72588e-21 1.13904)
(9.36847 -5.36077e-20 1.29285)
(9.24978 3.4377e-20 1.45933)
(9.12044 -8.07392e-20 1.64014)
(8.98022 7.8554e-20 1.8371)
(8.8289 -1.55857e-19 2.05229)
(8.66609 1.77241e-19 2.28807)
(8.49128 0 2.54708)
(8.30379 -4.33723e-20 2.83235)
(8.10264 -8.76143e-20 3.14742)
(7.88646 6.98307e-19 3.49648)
(7.65322 -7.86519e-19 3.88448)
(7.39988 0 4.31722)
(7.1218 9.24202e-20 4.8014)
(6.81177 -4.21777e-20 5.34466)
(6.45844 0 5.95511)
(6.04359 -4.35368e-20 6.64034)
(5.54058 -5.24006e-18 7.40183)
(4.88397 8.47081e-20 8.23706)
(4.11494 5.48022e-18 9.0839)
(2.62313 -6.55112e-20 9.93675)
(9.99432 -4.25598e-21 0.105797)
(9.98119 -2.156e-21 0.211002)
(9.95674 0 0.317149)
(9.92167 -5.47798e-22 0.425691)
(9.87714 -2.76276e-22 0.537924)
(9.82355 4.47021e-21 0.655107)
(9.76095 0 0.778462)
(9.68929 -1.37318e-20 0.909234)
(9.60861 0 1.04871)
(9.51897 1.00511e-23 1.19822)
(9.42036 9.5091e-21 1.35919)
(9.31268 0 1.53319)
(9.19583 0 1.7219)
(9.06973 0 1.92717)
(8.93426 -7.07103e-20 2.15113)
(8.78928 -9.23293e-20 2.39624)
(8.63455 1.63046e-19 2.66528)
(8.4697 0 2.9615)
(8.29419 -2.03838e-20 3.28877)
(8.10723 0 3.6518)
(7.90757 -4.04937e-20 4.0563)
(7.69323 0 4.5093)
(7.46106 6.26198e-20 5.01955)
(7.20583 -1.20796e-18 5.59801)
(6.91868 -1.17334e-18 6.2585)
(6.58387 2.39631e-18 7.01866)
(6.17614 -2.17482e-18 7.89804)
(5.61714 2.21426e-18 8.92833)
(4.93735 0 10.1065)
(3.23473 3.88465e-18 11.5562)
(9.99466 4.25422e-21 0.110743)
(9.98266 0 0.220873)
(9.96024 0 0.331996)
(9.92808 1.08526e-21 0.445615)
(9.88734 -5.42502e-22 0.563048)
(9.83843 -4.41997e-21 0.68557)
(9.78144 -7.00577e-23 0.814418)
(9.71639 9.19229e-21 0.950853)
(9.64339 -3.56237e-23 1.09616)
(9.56258 -1.16179e-21 1.25171)
(9.474 -3.53556e-21 1.41892)
(9.37767 4.71948e-21 1.59939)
(9.2737 0 1.79479)
(9.16214 1.91752e-20 2.007)
(9.04305 -2.91601e-20 2.23817)
(8.91654 5.9317e-20 2.49076)
(8.78267 -7.86912e-20 2.76765)
(8.64148 -4.87909e-21 3.07219)
(8.49296 -1.37888e-19 3.40845)
(8.33707 1.59491e-19 3.78138)
(8.17357 3.95392e-20 4.19715)
(8.00201 2.3396e-21 4.66358)
(7.82144 8.70315e-22 5.19073)
(7.63005 3.49822e-20 5.79195)
(7.42437 1.13561e-18 6.48551)
(7.19727 5.88238e-20 7.2978)
(6.93837 -1.08076e-18 8.26696)
(6.58648 1.54074e-18 9.46666)
(6.20422 -1.49627e-18 11.0249)
(4.36023 0 13.8803)
(-0.0614227 0 0.173347)
(-0.636291 0 0.406693)
(-1.45056 0 0.478722)
(-2.35957 -7.03938e-20 0.499831)
(-3.32838 0 0.501354)
(-4.32822 0 0.49272)
(-5.33794 0 0.477316)
(-6.34192 1.7101e-19 0.456706)
(-7.32795 -3.01322e-19 0.431759)
(-8.28568 9.37361e-20 0.402988)
(-9.2054 -1.67903e-19 0.370686)
(-10.0771 0 0.335021)
(-10.8901 9.74787e-20 0.296087)
(-11.6324 0 0.253939)
(-12.2907 0 0.208634)
(-12.8503 0 0.160246)
(-13.2957 0 0.108962)
(-13.6111 -2.66956e-20 0.0549087)
(-13.7801 2.63241e-20 -0.00196698)
(-13.7865 -2.48689e-20 -0.0621314)
(-13.6162 4.89059e-20 -0.125906)
(-13.259 0 -0.192096)
(-12.7073 0 -0.261016)
(-11.9537 -4.38405e-21 -0.334686)
(-10.9833 -6.17306e-21 -0.417541)
(-9.76203 2.08444e-21 -0.519701)
(-8.23289 3.62883e-21 -0.666557)
(-6.33267 1.95377e-22 -0.914461)
(-3.89998 -6.31536e-23 -1.35248)
(1.53361 -1.50445e-22 -2.15304)
(-0.303284 2.06674e-20 0.629832)
(-0.925832 -3.61961e-20 0.927157)
(-1.74634 0 1.06787)
(-2.64302 6.31037e-20 1.14455)
(-3.59343 -1.2785e-19 1.18457)
(-4.57094 0 1.19958)
(-5.5556 0 1.19515)
(-6.53243 7.46349e-19 1.17438)
(-7.48964 -5.67707e-19 1.13919)
(-8.41708 -8.21366e-20 1.09073)
(-9.30511 -1.71407e-19 1.0296)
(-10.1438 1.80964e-19 0.956028)
(-10.9222 2.92545e-19 0.870026)
(-11.6282 9.45957e-21 0.771527)
(-12.2481 0 0.660536)
(-12.7669 1.05793e-19 0.53733)
(-13.1688 0 0.402627)
(-13.4376 -1.08548e-19 0.257657)
(-13.557 0 0.104)
(-13.5103 6.32586e-21 -0.0567471)
(-13.2922 -9.14175e-20 -0.220946)
(-12.8944 1.16744e-20 -0.383703)
(-12.3103 -9.33862e-21 -0.544111)
(-11.5336 2.15765e-20 -0.704007)
(-10.5524 -7.98387e-21 -0.868621)
(-9.34163 2.76539e-21 -1.05197)
(-7.86388 8.37266e-22 -1.29361)
(-6.08581 -3.93946e-22 -1.68201)
(-3.90208 3.11356e-22 -2.33521)
(-0.401755 6.96549e-23 -3.25621)
(-0.334169 -1.8887e-20 1.27983)
(-0.971623 3.30084e-20 1.61976)
(-1.7933 1.92101e-18 1.80422)
(-2.65957 4.05995e-19 1.91353)
(-3.56393 -3.76784e-18 1.97063)
(-4.48621 1.89392e-18 1.98835)
(-5.41098 -1.11643e-18 1.97412)
(-6.32621 -4.18442e-19 1.93266)
(-7.2221 1.42289e-18 1.86705)
(-8.08992 8.2735e-19 1.77922)
(-8.92113 -4.73152e-19 1.67021)
(-9.70662 -1.7765e-19 1.54039)
(-10.4361 -3.90381e-19 1.38978)
(-11.0977 -2.26445e-19 1.2183)
(-11.6779 4.01425e-19 1.02602)
(-12.1617 -1.06462e-19 0.813519)
(-12.5332 0 0.582265)
(-12.7759 1.09443e-19 0.33488)
(-12.873 -5.40303e-20 0.0753038)
(-12.8081 5.44395e-20 -0.191622)
(-12.5785 4.9928e-20 -0.462059)
(-12.1749 -3.57648e-20 -0.730428)
(-11.5933 -2.04156e-20 -0.99508)
(-10.8296 9.55577e-21 -1.25829)
(-9.87602 0 -1.52694)
(-8.71737 -2.68631e-21 -1.81817)
(-7.33804 0 -2.17488)
(-5.73919 3.70455e-23 -2.67981)
(-3.88608 -1.33834e-23 -3.42181)
(-1.42393 -7.88054e-25 -4.37584)
(-0.263382 4.64068e-18 1.99021)
(-0.87364 -3.97695e-18 2.34391)
(-1.68631 1.1739e-19 2.53985)
(-2.51122 -2.21061e-18 2.65884)
(-3.35872 1.58583e-18 2.71869)
(-4.21502 2.12e-18 2.73121)
(-5.07029 -3.96961e-18 2.70429)
(-5.91634 3.59621e-18 2.64326)
(-6.74603 -2.70898e-18 2.55163)
(-7.55242 -1.41717e-19 2.43147)
(-8.32808 2.03178e-18 2.28372)
(-9.06448 -6.98767e-19 2.10843)
(-9.7515 -1.91938e-19 1.90519)
(-10.377 0 1.6734)
(-10.9269 2.17892e-19 1.41271)
(-11.3852 2.27437e-19 1.12338)
(-11.7348 -2.26009e-19 0.80684)
(-11.9581 2.33885e-19 0.466153)
(-12.0373 -4.74509e-19 0.106545)
(-11.9554 -3.89627e-22 -0.264791)
(-11.7156 -5.0888e-20 -0.638502)
(-11.3099 1.4591e-19 -1.00666)
(-10.7369 9.93105e-21 -1.36716)
(-9.99512 -2.01549e-20 -1.72299)
(-9.08053 -8.31271e-21 -2.08257)
(-7.98696 0 -2.46488)
(-6.71579 0 -2.91172)
(-5.2944 9.92027e-23 -3.49327)
(-3.74434 -9.75009e-23 -4.27084)
(-1.92502 -5.37336e-25 -5.1939)
(-0.135648 -2.5885e-20 2.72215)
(-0.687457 -6.41543e-20 3.06552)
(-1.47686 3.98262e-18 3.25138)
(-2.24765 -3.42237e-18 3.36477)
(-3.03002 2.38322e-19 3.41827)
(-3.8145 -2.43614e-18 3.42126)
(-4.5962 4.65888e-18 3.38072)
(-5.37035 2.63443e-19 3.30149)
(-6.13216 -2.35483e-18 3.18657)
(-6.87622 3.40726e-19 3.03741)
(-7.59592 0 2.85418)
(-8.28298 -7.96211e-19 2.6361)
(-8.92716 1.18688e-18 2.38186)
(-9.51593 0 2.09013)
(-10.0344 -6.83779e-19 1.76007)
(-10.4657 4.58268e-19 1.3919)
(-10.7918 0 0.987744)
(-10.994 0 0.552351)
(-11.0536 -2.60259e-19 0.0941265)
(-10.955 2.37117e-19 -0.374825)
(-10.707 -1.68187e-19 -0.844064)
(-10.3028 2.67298e-21 -1.30323)
(-9.74448 -2.08726e-20 -1.74962)
(-9.03306 3.92601e-20 -2.18677)
(-8.16774 3.50381e-21 -2.62363)
(-7.14902 -8.5727e-22 -3.07796)
(-5.99007 1.0693e-21 -3.5849)
(-4.73555 1.11658e-21 -4.19914)
(-3.44589 1.09287e-22 -4.96199)
(-2.05728 5.21882e-25 -5.79713)
(0.0264197 1.6329e-20 3.4465)
(-0.44406 4.19262e-18 3.76424)
(-1.19599 2.86313e-19 3.92813)
(-1.89926 -4.03264e-18 4.02656)
(-2.60805 0 4.06773)
(-3.31477 2.60382e-19 4.05851)
(-4.01843 -5.54263e-19 4.00436)
(-4.71688 0 3.90896)
(-5.40723 2.75357e-18 3.77424)
(-6.08531 -3.71462e-18 3.60056)
(-6.74522 0 3.38697)
(-7.37894 0 3.13159)
(-7.97629 -4.19008e-19 2.83208)
(-8.5246 0 2.48625)
(-9.00846 4.8528e-19 2.09253)
(-9.41031 5.10361e-19 1.65089)
(-9.71116 -7.77918e-19 1.16377)
(-9.89101 2.68597e-19 0.637465)
(-9.92966 4.12688e-19 0.0833603)
(-9.81333 -3.3659e-21 -0.483304)
(-9.55862 0 -1.04419)
(-9.15984 0 -1.58802)
(-8.62271 4.80599e-20 -2.11234)
(-7.95041 0 -2.62197)
(-7.14427 0 -3.12618)
(-6.20893 1.34031e-20 -3.63955)
(-5.16434 -4.48903e-21 -4.18703)
(-4.06453 -1.60732e-21 -4.80636)
(-2.99317 -3.39419e-22 -5.52399)
(-1.91375 0 -6.24195)
(0.208066 0 4.13761)
(-0.163575 0 4.41968)
(-0.864415 2.63544e-19 4.55527)
(-1.48659 4.34348e-18 4.63356)
(-2.11276 -4.12668e-18 4.65928)
(-2.73456 -5.85388e-19 4.63703)
(-3.35417 6.20911e-19 4.57037)
(-3.97142 0 4.46141)
(-4.58486 0 4.31056)
(-5.19138 -8.32689e-19 4.11672)
(-5.78585 1.51536e-18 3.87754)
(-6.36068 -1.77376e-18 3.58969)
(-6.90591 1.74014e-18 3.2496)
(-7.40896 -4.90424e-19 2.85392)
(-7.85422 -5.02887e-19 2.40017)
(-8.2235 -5.4849e-19 1.88788)
(-8.49656 5.74587e-19 1.3199)
(-8.65141 -2.93683e-19 0.704451)
(-8.66689 0 0.0570768)
(-8.53625 0 -0.60117)
(-8.27632 0 -1.24586)
(-7.88743 1.71664e-19 -1.86458)
(-7.37838 -1.25835e-19 -2.45594)
(-6.75392 2.29002e-20 -3.02702)
(-6.01619 0 -3.58742)
(-5.17161 -1.34315e-20 -4.14759)
(-4.24311 1.07091e-21 -4.72037)
(-3.28799 -1.87606e-21 -5.32634)
(-2.39885 6.35281e-22 -5.98107)
(-1.55655 0 -6.5721)
(0.396995 8.96138e-18 4.77131)
(0.138238 2.58708e-19 5.01168)
(-0.497548 -4.41693e-18 5.11615)
(-1.02461 -2.84363e-19 5.1725)
(-1.55868 0 5.18232)
(-2.08737 5.90522e-19 5.14819)
(-2.6158 -2.6887e-18 5.07139)
(-3.14509 2.63267e-18 4.95222)
(-3.67496 0 4.78936)
(-4.20317 -2.4747e-18 4.58005)
(-4.72538 1.62421e-18 4.32035)
(-5.23478 0 4.00546)
(-5.72187 5.15517e-19 3.6303)
(-6.17442 -4.90495e-19 3.1902)
(-6.57711 -5.66768e-19 2.68157)
(-6.91148 1.14987e-18 2.10316)
(-7.15588 7.79011e-21 1.4579)
(-7.28541 -3.24763e-19 0.756026)
(-7.27548 -3.45857e-19 0.0183627)
(-7.13135 0 -0.724956)
(-6.86978 6.76109e-20 -1.44547)
(-6.49605 -1.85981e-19 -2.12858)
(-6.02218 0 -2.77544)
(-5.45361 4.65996e-20 -3.39675)
(-4.79211 0 -4.00262)
(-4.04387 3.27161e-21 -4.59902)
(-3.23263 1.52532e-22 -5.18609)
(-2.41482 2.10583e-21 -5.76786)
(-1.67963 -3.70024e-22 -6.35118)
(-1.02999 -1.65295e-22 -6.81648)
(0.58218 0 5.31952)
(0.447971 0 5.51983)
(-0.107646 0 5.59391)
(-0.52512 2.85699e-19 5.62973)
(-0.957661 0 5.62556)
(-1.38468 0 5.58246)
(-1.81434 1.53474e-18 5.4991)
(-2.24851 -2.84381e-18 5.37386)
(-2.68768 0 5.20364)
(-3.13038 8.40118e-19 4.98398)
(-3.57301 0 4.70936)
(-4.00975 0 4.37345)
(-4.43207 5.18547e-19 3.96957)
(-4.82857 5.71032e-19 3.49142)
(-5.18474 -6.10469e-19 2.93402)
(-5.48243 1.30779e-18 2.29503)
(-5.69814 -6.75345e-19 1.57706)
(-5.80229 3.66587e-19 0.792784)
(-5.7659 1.83218e-19 -0.0302997)
(-5.60941 3.41757e-19 -0.853897)
(-5.35147 -1.55963e-21 -1.64073)
(-4.99977 0 -2.37625)
(-4.56867 0 -3.06623)
(-4.06319 -7.10266e-20 -3.72666)
(-3.48389 2.18216e-20 -4.36816)
(-2.83525 -3.51364e-21 -4.99174)
(-2.14148 -2.33214e-21 -5.58499)
(-1.45565 1.92946e-21 -6.13826)
(-0.853121 5.40909e-22 -6.64767)
(-0.367563 0 -6.99203)
(0.757702 -4.72683e-18 5.75275)
(0.758197 1.50841e-19 5.92376)
(0.295925 0 5.97225)
(0.00218687 0 5.99225)
(-0.320529 0 5.97787)
(-0.637718 0 5.93019)
(-0.961429 7.40041e-19 5.84493)
(-1.29362 8.20148e-19 5.71849)
(-1.63535 0 5.54605)
(-1.98552 0 5.32149)
(-2.34121 0 5.03792)
(-2.69763 2.1945e-18 4.6876)
(-3.04762 -1.10396e-18 4.26229)
(-3.38116 -6.08741e-19 3.75382)
(-3.68537 6.54375e-19 3.15551)
(-3.94332 -2.15064e-18 2.46328)
(-4.12952 1.14308e-18 1.67831)
(-4.20715 -8.26457e-19 0.814816)
(-4.14237 1.08069e-18 -0.0908446)
(-3.97955 -3.8331e-19 -0.987753)
(-3.73489 -3.37546e-19 -1.82825)
(-3.41524 0 -2.60251)
(-3.03584 -1.26912e-19 -3.32266)
(-2.59999 -6.56999e-20 -4.01211)
(-2.10695 1.16544e-20 -4.68153)
(-1.55868 0 -5.3261)
(-0.980893 0 -5.91948)
(-0.422928 -8.5682e-22 -6.44341)
(0.0644006 6.12068e-22 -6.88172)
(0.403198 2.84469e-22 -7.11633)
(0.922136 0 6.05644)
(1.06715 -5.05801e-18 6.20225)
(0.705985 -6.20236e-19 6.23808)
(0.549077 -3.80724e-19 6.24861)
(0.342062 8.56874e-18 6.22947)
(0.141749 -2.9545e-18 6.18263)
(-0.0700708 0 6.10103)
(-0.294694 -8.67669e-19 5.97874)
(-0.533442 1.02314e-18 5.8093)
(-0.785177 1.80033e-19 5.58538)
(-1.04708 -9.87889e-19 5.29883)
(-1.31539 5.9606e-20 4.94073)
(-1.58455 -1.21334e-18 4.5013)
(-1.84613 -1.40339e-18 3.9701)
(-2.08976 6.72435e-19 3.33805)
(-2.30191 1.56878e-18 2.59827)
(-2.45573 8.76059e-19 1.75016)
(-2.50224 0 0.811127)
(-2.4039 -1.23087e-18 -0.16592)
(-2.24885 -4.24682e-19 -1.1216)
(-2.03392 1.90147e-19 -2.00129)
(-1.76055 1.61264e-19 -2.80186)
(-1.4438 1.02583e-19 -3.5411)
(-1.08438 7.30893e-20 -4.25123)
(-0.679895 1.24665e-20 -4.94215)
(-0.231154 -4.008e-21 -5.60464)
(0.235875 3.71902e-21 -6.19666)
(0.666865 -5.23671e-21 -6.68427)
(1.04517 8.10315e-22 -7.05353)
(1.27498 5.0894e-24 -7.20772)
(1.06292 9.94612e-21 6.22267)
(1.37002 -1.59117e-19 6.35228)
(1.11914 3.36337e-19 6.3836)
(1.10641 7.37312e-19 6.3902)
(1.01871 0 6.37359)
(0.940602 -8.39988e-19 6.33418)
(0.844561 -3.7265e-18 6.26318)
(0.73121 3.66529e-18 6.15203)
(0.599516 1.02264e-18 5.99289)
(0.449647 1.11756e-18 5.77544)
(0.286235 6.01011e-20 5.49198)
(0.112587 -2.53674e-18 5.13301)
(-0.0678393 0 4.68756)
(-0.247668 7.81207e-19 4.14415)
(-0.419647 -8.00163e-19 3.49199)
(-0.578822 -9.0678e-19 2.72282)
(-0.695748 -9.93236e-19 1.83324)
(-0.693746 2.79689e-19 0.832594)
(-0.548475 8.61794e-19 -0.217973)
(-0.42996 3.65601e-19 -1.2278)
(-0.268118 1.06288e-19 -2.14094)
(-0.0587072 -1.7437e-19 -2.9653)
(0.185149 0 -3.72414)
(0.462031 -5.8522e-20 -4.45043)
(0.777081 0 -5.15671)
(1.12041 1.74957e-20 -5.81952)
(1.47709 0 -6.40127)
(1.80546 3.30159e-21 -6.86542)
(2.0941 1.98285e-22 -7.18287)
(2.22756 -9.2735e-23 -7.26785)
(1.18837 -9.97018e-21 6.25474)
(1.65808 -3.33534e-19 6.37726)
(1.53235 0 6.40196)
(1.65979 -1.45937e-18 6.40682)
(1.70074 -7.65807e-19 6.40105)
(1.74491 -2.55527e-18 6.37648)
(1.7645 3.26071e-18 6.32239)
(1.76157 -9.03222e-19 6.22774)
(1.73662 0 6.08329)
(1.69082 -2.06909e-18 5.87856)
(1.62823 0 5.60395)
(1.55279 2.4226e-18 5.25007)
(1.46792 -2.00501e-18 4.8055)
(1.37936 1.41971e-18 4.25912)
(1.29311 4.07065e-19 3.59957)
(1.21041 4.95965e-22 2.81575)
(1.16036 1.45206e-18 1.89724)
(1.22923 0 0.849152)
(1.36434 -5.42907e-19 -0.254437)
(1.43966 1.11334e-19 -1.29862)
(1.52993 -3.86369e-19 -2.23467)
(1.65411 -2.80798e-19 -3.0671)
(1.81066 3.4628e-20 -3.83963)
(2.00292 1.0791e-19 -4.58456)
(2.23196 4.30886e-20 -5.307)
(2.48762 -3.29471e-20 -5.98044)
(2.7533 0 -6.55939)
(2.98964 8.1791e-22 -7.00041)
(3.19429 -2.05595e-22 -7.27101)
(3.23738 -4.75851e-23 -7.29844)
(1.3018 -5.3652e-18 6.1698)
(1.91079 5.62181e-18 6.26482)
(1.94046 0 6.27931)
(2.20226 7.16289e-19 6.2884)
(2.38035 7.39421e-19 6.30503)
(2.54397 -1.60432e-18 6.30591)
(2.67586 1.54651e-18 6.27702)
(2.7794 1.78022e-18 6.20552)
(2.8574 -7.856e-19 6.08091)
(2.91251 -9.6495e-19 5.89249)
(2.94877 1.52872e-18 5.62988)
(2.97046 -2.75584e-18 5.28355)
(2.98165 2.42554e-18 4.8422)
(2.98738 -1.28363e-18 4.29468)
(2.99314 3.42984e-19 3.62963)
(3.00176 9.54948e-19 2.8344)
(3.03375 -6.46249e-19 1.89988)
(3.12799 0 0.846716)
(3.2312 -4.65047e-19 -0.260662)
(3.27217 0 -1.32139)
(3.29894 3.4207e-19 -2.27433)
(3.34323 1.10478e-19 -3.12592)
(3.41803 3.18853e-20 -3.91671)
(3.53179 -5.02755e-20 -4.68003)
(3.68449 6.87587e-23 -5.41801)
(3.86332 -3.55343e-21 -6.09847)
(4.04822 6.58429e-21 -6.67152)
(4.20135 5.51592e-21 -7.09053)
(4.32723 5.70352e-22 -7.32026)
(4.28342 1.85845e-22 -7.30026)
(1.37481 0 6.01109)
(2.07647 0 6.01373)
(2.32007 -1.38957e-18 6.01302)
(2.72559 2.00785e-18 6.03685)
(3.04746 -3.7864e-20 6.08775)
(3.32663 -6.09558e-20 6.12561)
(3.56417 7.30007e-19 6.1309)
(3.76735 1.22158e-18 6.08962)
(3.94165 -8.03091e-19 5.99046)
(4.09136 -8.98873e-19 5.82269)
(4.22099 4.59482e-19 5.57593)
(4.33486 7.64179e-19 5.24052)
(4.43726 -2.64296e-20 4.80559)
(4.53264 1.34104e-19 4.25996)
(4.62535 -1.29336e-18 3.59231)
(4.7179 -1.22381e-18 2.79033)
(4.81642 0 1.84951)
(4.92797 4.10916e-19 0.797789)
(5.01507 4.11471e-19 -0.294121)
(5.02573 0 -1.33583)
(4.99778 1.87859e-20 -2.28148)
(4.97242 -3.32078e-20 -3.14041)
(4.977 2.81928e-20 -3.94902)
(5.02578 -5.919e-20 -4.73419)
(5.11649 -7.59229e-20 -5.48977)
(5.23128 7.92972e-23 -6.17704)
(5.3458 -5.51795e-21 -6.74286)
(5.42361 -3.78193e-21 -7.13975)
(5.47499 0 -7.33256)
(5.3464 4.53904e-23 -7.27302)
(9.99501 3.53132e-21 0.115355)
(9.98421 5.09543e-22 0.230068)
(9.96394 0 0.34581)
(9.93486 0 0.464121)
(9.89809 6.53934e-23 0.58634)
(9.85411 9.95397e-22 0.713751)
(9.80303 1.06243e-21 0.847599)
(9.74495 -8.56349e-21 0.989148)
(9.68004 7.8231e-23 1.13968)
(9.6085 1.7531e-20 1.30057)
(9.53048 -8.85545e-21 1.47324)
(9.44617 -1.78023e-20 1.65925)
(9.3558 1.8148e-20 1.86028)
(9.2596 -2.26804e-22 2.07819)
(9.15786 2.27858e-22 2.31508)
(9.05093 1.86122e-20 2.5734)
(8.93922 0 2.856)
(8.82324 2.28248e-20 3.16623)
(8.7036 -9.1365e-21 3.50811)
(8.58107 6.77261e-21 3.8866)
(8.45666 0 4.30791)
(8.33168 1.49961e-20 4.77991)
(8.20793 2.57231e-22 5.31289)
(8.08804 2.92291e-20 5.92064)
(7.97625 -6.2139e-20 6.62245)
(7.87993 -1.14208e-19 7.44671)
(7.82134 -7.79194e-20 8.43643)
(7.83044 0 9.6676)
(8.46671 2.97167e-20 11.2313)
(8.88465 -2.66204e-20 13.8497)
(9.99538 -3.94266e-21 0.11964)
(9.98585 0 0.238597)
(9.96785 9.891e-22 0.358584)
(9.942 0 0.481175)
(9.9094 2.02243e-21 0.607719)
(9.87055 -6.1147e-21 0.739508)
(9.82561 4.10204e-21 0.877782)
(9.77476 8.34495e-21 1.0238)
(9.71821 -8.22105e-21 1.17884)
(9.65624 -6.65596e-23 1.34425)
(9.58915 1.71789e-20 1.52144)
(9.51723 -3.39992e-20 1.71192)
(9.44087 0 1.91733)
(9.3605 1.68845e-20 2.13948)
(9.27662 6.98397e-20 2.3804)
(9.18985 -2.43982e-19 2.64243)
(9.10098 3.83388e-23 2.9283)
(9.01095 -1.72173e-20 3.24119)
(8.92102 1.37566e-19 3.58491)
(8.83278 2.6878e-19 3.96409)
(8.74842 -2.33596e-19 4.38446)
(8.67094 0 4.8532)
(8.60467 0 5.37942)
(8.55617 7.27277e-19 5.97498)
(8.53612 -8.77681e-19 6.65544)
(8.56259 0 7.44129)
(8.67426 -9.64535e-19 8.3576)
(8.87869 1.08833e-18 9.42754)
(9.48718 3.39513e-19 10.5997)
(10.0617 -3.3358e-19 11.6585)
(9.99577 1.90739e-21 0.123525)
(9.98756 -2.53901e-22 0.246317)
(9.97194 -7.19914e-22 0.370121)
(9.94946 -9.66969e-22 0.496536)
(9.92119 0 0.626916)
(9.88766 -3.91174e-21 0.762546)
(9.84907 -7.885e-21 0.904658)
(9.80566 1.60232e-20 1.05449)
(9.75773 1.36135e-22 1.2133)
(9.70561 0 1.3824)
(9.64972 6.55269e-20 1.56315)
(9.59048 -8.23602e-20 1.757)
(9.52843 -1.87585e-22 1.96551)
(9.46417 1.65375e-19 2.19041)
(9.39844 -2.65222e-19 2.43359)
(9.33212 1.98621e-19 2.69724)
(9.26633 0 2.98385)
(9.20246 0 3.2963)
(9.14228 0 3.63799)
(9.08813 5.62824e-19 4.01294)
(9.04312 -4.10906e-20 4.426)
(9.01147 4.5214e-19 4.88296)
(8.9991 -8.60247e-19 5.39079)
(9.01451 1.08445e-19 5.95772)
(9.07007 0 6.59294)
(9.18266 0 7.30509)
(9.38146 0 8.09758)
(9.65057 1.06923e-19 8.95464)
(10.1052 9.38276e-19 9.84218)
(10.7317 -9.16357e-19 10.6389)
(9.99618 -1.84793e-21 0.126963)
(9.98935 -9.15193e-22 0.253134)
(9.97618 -2.31838e-21 0.380278)
(9.95717 1.86972e-21 0.510006)
(9.93337 -3.79823e-21 0.643669)
(9.9053 7.62383e-21 0.78254)
(9.87324 2.30068e-20 0.927828)
(9.83746 -1.53774e-20 1.08075)
(9.79832 -3.1054e-20 1.24252)
(9.75625 -4.68094e-20 1.41439)
(9.71175 6.26308e-20 1.59766)
(9.66537 -3.17603e-20 1.7937)
(9.61778 1.263e-19 2.00396)
(9.56975 -9.50402e-20 2.23003)
(9.52223 0 2.47365)
(9.47633 -3.17875e-20 2.73676)
(9.43345 3.07114e-20 3.02154)
(9.39535 0 3.33048)
(9.36421 0 3.66638)
(9.34287 -6.0148e-20 4.0325)
(9.33499 0 4.43251)