/*--------------------------------*- C++ -*----------------------------------*\
| =========                 |                                                 |
| \\      /  F ield         | OpenFOAM: The Open Source CFD Toolbox           |
|  \\    /   O peration     | Version:  5.x                                   |
|   \\  /    A nd           | Web:      www.OpenFOAM.org                      |
|    \\/     M anipulation  |                                                 |
\*---------------------------------------------------------------------------*/
FoamFile
{
    version     2.0;
    format      ascii;
    class       volScalarField;
    location    "0.1";
    object      p;
}
// * * * * * * * * * * * * * * * * * * * * * * * * * * * * * * * * * * * * * //

dimensions      [0 2 -2 0 0 0 0];

internalField   nonuniform List<scalar> 
2790
(
70.7285
70.4673
70.5471
70.9477
71.5596
72.338
73.2767
74.3749
75.6283
77.0317
78.5809
80.2723
82.1022
84.0658
86.1562
88.3638
90.6752
93.0724
95.5323
98.0256
100.517
102.966
105.325
107.546
109.576
111.367
112.875
114.093
114.808
115.628
70.5325
70.3815
70.4864
70.8847
71.494
72.2707
73.2067
74.3009
75.5493
76.9467
78.489
80.1728
81.9945
83.9494
86.031
88.2301
90.5337
92.9245
95.38
97.8718
100.365
102.82
105.19
107.424
109.472
111.282
112.805
114.056
114.737
115.577
70.3458
70.2647
70.3889
70.7779
71.3758
72.1422
73.0667
74.1471
75.3797
76.7593
78.2818
79.9436
81.7413
83.6702
85.7243
87.8946
90.169
92.5311
94.9594
97.4268
99.9003
102.341
104.703
106.937
108.991
110.813
112.345
113.632
114.26
115.114
70.1385
70.0886
70.226
70.6078
71.1932
71.946
72.8545
73.9154
75.125
76.4782
77.9707
79.5989
81.3594
83.2479
85.2583
87.3825
89.6089
91.9224
94.3027
96.7247
99.157
101.562
103.898
106.115
108.161
109.982
111.511
112.823
113.396
114.255
69.9008
69.8653
70.0119
70.3875
70.9582
71.6925
72.5785
73.6126
74.7905
76.1074
77.5589
79.1413
80.8511
82.6841
84.6345
86.6946
88.8538
91.0978
93.4084
95.7621
98.1302
100.478
102.765
104.945
106.966
108.777
110.295
111.63
112.171
113.063
69.6285
69.599
69.7488
70.1159
70.6687
71.3796
72.2374
73.2378
74.3765
75.6482
77.0485
78.5736
80.2197
81.9826
83.8568
85.8347
87.9066
90.0594
92.2764
94.5362
96.8131
99.0755
101.287
103.404
105.378
107.161
108.661
110.02
110.547
111.472
69.3197
69.2915
69.4393
69.7947
70.3267
71.01
71.8342
72.7947
73.8866
75.1046
76.4439
77.9004
79.4702
81.1486
82.9303
84.8079
86.7719
88.8104
90.9079
93.0453
95.1994
97.3426
99.4423
101.461
103.356
105.086
106.552
107.932
108.472
109.477
68.974
68.9442
69.0857
69.4264
69.9345
70.5861
71.3717
72.2863
73.3244
74.4806
75.7496
77.1268
78.608
80.1881
81.8614
83.6203
85.4556
87.3556
89.3059
91.289
93.2841
95.267
97.2103
99.0828
100.85
102.482
103.881
105.261
105.828
106.965
68.5917
68.5584
68.6904
69.0132
69.4943
70.1106
70.8528
71.7159
72.6938
73.7806
74.9706
76.2587
77.6399
79.1084
80.6579
82.2803
83.9659
85.7027
87.4765
89.2703
91.065
92.8388
94.5684
96.2295
97.7966
99.2578
100.522
101.841
102.401
103.647
68.1739
68.1357
68.2556
68.5576
69.0088
69.5862
70.281
71.0874
71.9993
73.01
74.1132
75.303
76.5735
77.9182
79.3295
80.7984
82.3138
83.8627
85.4298
86.9975
88.5458
90.0535
91.499
92.8627
94.1273
95.2991
96.3039
97.4397
97.9066
99.2153
67.722
67.6779
67.7835
68.0623
68.4809
69.0164
69.6598
70.4052
71.2459
72.1744
73.1838
74.2672
75.4177
76.6275
77.8875
79.187
80.5131
81.8505
83.1813
84.4849
85.7383
86.9165
87.9948
88.952
89.7729
90.4771
91.0147
91.7413
91.9404
93.262
67.2377
67.1868
67.2766
67.53
67.9136
68.4044
68.9932
69.6738
70.4387
71.28
72.1896
73.1597
74.1822
75.2476
76.3449
77.4612
78.5809
79.6853
80.7523
81.7558
82.6656
83.448
84.067
84.4881
84.6823
84.6635
84.396
84.2956
83.8285
84.9964
66.7228
66.6648
66.7373
66.9635
67.3101
67.7539
68.2854
68.898
69.5835
70.3333
71.1383
71.9896
72.8775
73.7907
74.7162
75.6381
76.5374
77.391
78.1706
78.8423
79.3648
79.6886
79.7557
79.5003
78.8509
77.7688
76.1747
74.4771
72.3906
72.738
66.1797
66.1139
66.1683
66.3659
66.6737
67.0686
67.5407
68.0828
68.6861
69.3412
70.038
70.7663
71.5148
72.2704
73.0173
73.7368
74.4056
74.9953
75.4706
75.7869
75.8884
75.7035
75.1402
74.0799
72.3665
69.8258
66.182
61.5525
55.593
52.5811
65.6106
65.5368
65.5722
65.74
66.0079
66.3524
66.7634
67.2332
67.7524
68.3105
68.8967
69.4994
70.1056
70.7001
71.2648
71.7773
72.2103
72.5295
72.6914
72.6404
72.3035
71.5831
70.3451
68.4
65.4663
61.1319
54.6655
45.1736
30.3427
12.8332
-103.16
-102.641
-102.614
-101.72
-100.299
-97.9596
-94.5043
-89.8071
-83.8728
-76.8667
-69.1031
-60.9757
-52.7535
-44.6277
-36.9622
-30.1098
-24.1783
-19.1752
-15.0459
-11.6973
-9.01845
-6.89534
-5.22102
-3.90074
-2.85398
-2.01445
-1.32891
-0.755518
-0.262548
0.172113
-103.6
-103.091
-103.183
-102.358
-101.037
-98.7602
-95.3219
-90.5947
-84.5977
-77.5077
-69.6515
-61.4368
-53.1371
-44.9359
-37.2059
-30.3071
-24.3398
-19.3083
-15.1563
-11.7892
-9.09504
-6.95907
-5.27386
-3.94429
-2.88959
-2.04328
-1.35192
-0.773361
-0.274896
0.173403
-104.567
-104.16
-104.434
-103.756
-102.605
-100.435
-97.016
-92.2228
-86.0827
-78.7935
-70.7149
-62.2872
-53.8068
-45.4327
-37.5481
-30.5457
-24.5082
-19.43
-15.2475
-11.8608
-9.15341
-7.00808
-5.31558
-3.97983
-2.91958
-2.06814
-1.37197
-0.788737
-0.28518
0.172206
-106.155
-105.944
-106.472
-106.051
-105.171
-103.182
-99.8076
-94.9137
-88.5315
-80.8962
-72.4303
-63.6301
-54.8263
-46.1627
-38.0338
-30.8693
-24.7259
-19.5807
-15.3575
-11.9462
-9.22381
-7.0683
-5.36792
-4.02522
-2.95838
-2.10056
-1.3982
-0.808942
-0.299382
0.166154
-108.517
-108.565
-109.457
-109.451
-108.984
-107.286
-103.999
-98.9605
-92.1996
-84.0199
-74.9518
-65.5775
-56.2631
-47.1609
-38.6892
-31.2943
-25.0017
-19.764
-15.4857
-12.0428
-9.30177
-7.13452
-5.42546
-4.07525
-3.00125
-2.13638
-1.42714
-0.831243
-0.31538
0.157621
-111.796
-112.215
-113.637
-114.264
-114.416
-113.157
-110.004
-104.741
-97.3894
-88.3865
-78.4328
-68.233
-58.1712
-48.448
-39.5334
-31.8358
-25.3474
-19.9892
-15.6403
-12.157
-9.39288
-7.21135
-5.492
-4.13301
-3.05069
-2.17766
-1.4605
-0.857081
-0.334327
0.146029
-116.266
-117.168
-119.326
-120.877
-121.915
-121.271
-118.273
-112.622
-104.353
-94.1563
-82.9671
-71.6413
-60.5619
-50.0183
-40.5664
-32.4964
-25.7667
-20.2608
-15.8253
-12.2926
-9.50003
-7.30085
-5.56885
-4.19922
-3.10701
-2.22447
-1.49823
-0.886355
-0.356079
0.131591
-122.15
-123.675
-126.823
-129.651
-131.889
-132.032
-129.128
-122.813
-113.18
-101.343
-88.5306
-75.7348
-63.3681
-51.8409
-41.7643
-33.2625
-26.2536
-20.5775
-16.042
-12.4518
-9.62559
-7.40506
-5.65757
-4.27501
-3.17099
-2.27735
-1.54072
-0.919383
-0.380871
0.114153
-129.446
-131.818
-136.252
-140.747
-144.528
-145.603
-142.633
-135.196
-123.673
-109.738
-94.9343
-80.3089
-66.4309
-53.8594
-43.0767
-34.1006
-26.7899
-20.9305
-16.2873
-12.6343
-9.77024
-7.5249
-5.75894
-4.36092
-3.24298
-2.33649
-1.58809
-0.956236
-0.40874
0.0937014
-137.944
-141.346
-147.343
-153.889
-159.539
-161.613
-158.284
-149.196
-135.278
-118.882
-101.764
-85.0824
-69.5746
-55.9362
-44.4167
-34.9576
-27.345
-21.3039
-16.5535
-12.8366
-9.93267
-7.65993
-5.87284
-4.45687
-3.32287
-2.40179
-1.64026
-0.996867
-0.439652
0.0702722
-146.931
-151.408
-159.187
-168.131
-175.896
-178.87
-174.906
-163.74
-147.113
-128.086
-108.458
-89.627
-72.5799
-57.8857
-45.6664
-35.7628
-27.8784
-21.675
-16.8282
-13.0522
-10.1093
-7.80802
-5.99788
-4.56191
-3.40997
-2.47275
-1.69686
-1.04102
-0.473432
0.0440192
-154.786
-160.306
-170.036
-181.614
-191.485
-194.944
-190.417
-177.235
-158.146
-136.368
-114.279
-93.4907
-75.0801
-59.4831
-46.6904
-36.4359
-28.3428
-22.0164
-17.0952
-13.2712
-10.2938
-7.96512
-6.13129
-4.67406
-3.50287
-2.54835
-1.7572
-1.08824
-0.509763
0.0152097
-159.029
-165.671
-177.459
-191.567
-203.678
-207.798
-203.043
-188.022
-166.687
-142.471
-118.331
-96.0835
-76.7049
-60.5042
-47.3542
-36.8966
-28.6899
-22.2982
-17.3356
-13.481
-10.4777
-8.12515
-6.26871
-4.7902
-3.59933
-2.62701
-1.82017
-1.13776
-0.548133
-0.0157474
-157.5
-165.784
-180.279
-196.829
-210.686
-215.811
-210.348
-193.748
-170.665
-145.046
-119.843
-96.9086
-77.1453
-60.762
-47.5448
-37.0752
-28.8753
-22.4909
-17.529
-13.6674
-10.6507
-8.28067
-6.40476
-4.90643
-3.69653
-2.70672
-1.88434
-1.18857
-0.587819
-0.0482459
-148.321
-159.971
-178.074
-196.434
-211.165
-216.382
-209.961
-192.724
-169.245
-143.499
-118.378
-95.6763
-76.2181
-60.1409
-47.187
-36.9199
-28.8615
-22.5668
-17.6547
-13.8149
-10.8017
-8.42388
-6.53412
-5.01924
-3.79227
-2.78616
-1.94899
-1.24033
-0.62868
-0.0821054
65.0065
64.9244
64.9399
65.0767
65.3029
65.5953
65.9431
66.3382
66.7706
67.229
67.7015
68.1751
68.6353
69.0649
69.4429
69.744
69.9364
69.98
69.8235
69.3999
68.6194
67.3588
65.4416
62.6055
58.4331
52.2288
42.6188
26.8016
-4.72759
-95.2921
64.3606
64.2699
64.2645
64.3688
64.5517
64.7899
65.0722
65.3901
65.7328
66.0884
66.4439
66.7852
67.0961
67.3573
67.5457
67.6327
67.5826
67.3503
66.8776
66.0882
64.8792
63.108
60.57
56.9579
51.7839
44.2346
32.8009
14.911
-11.9858
-51.628
63.678
63.5784
63.5516
63.6224
63.7607
63.9432
64.1586
64.3976
64.6492
64.9005
65.1377
65.3456
65.5066
65.5998
65.5999
65.4758
65.1888
64.69
63.9167
62.787
61.1918
58.9822
55.9499
51.7967
46.0865
38.1954
27.2692
12.3725
-6.15466
-27.7543
62.9602
62.8516
62.8029
62.8395
62.9324
63.0585
63.2061
63.3656
63.5254
63.6723
63.7915
63.867
63.8801
63.8084
63.6253
63.2979
62.7858
62.038
60.9904
59.5604
57.6406
55.0893
51.7185
47.2788
41.4447
33.8187
23.9597
11.3762
-4.32918
-23.7546
62.2088
62.0912
62.0205
62.0226
62.0697
62.1391
62.2188
62.299
62.3677
62.4112
62.4143
62.3602
62.2295
61.9991
61.6415
61.1231
60.403
59.4308
58.1435
56.4625
54.2888
51.4974
47.9315
43.3973
37.6615
30.4555
21.4821
10.39
-3.19261
-19.0521
61.4263
61.2997
61.2069
61.1746
61.176
61.189
61.2014
61.2033
61.1825
61.1249
61.0153
60.8363
60.5683
60.1879
59.6676
58.9742
58.0679
56.9003
55.4127
53.534
51.1774
48.2387
44.5937
40.0978
34.5875
27.8866
19.8195
10.2367
-0.939122
-13.2639
60.615
60.4798
60.3652
60.2987
60.2551
60.2125
60.159
60.0844
59.9767
59.8217
59.6041
59.3067
58.9098
58.3905
57.722
56.8725
55.8044
54.4733
52.8267
50.8027
48.3292
45.3231
41.691
37.3311
32.138
26.0118
18.8749
10.6957
1.49793
-8.38261
59.7782
59.6346
59.4987
59.3988
59.3111
59.2144
59.0969
58.9487
58.7576
58.51
58.1906
57.7826
57.2669
56.6216
55.8212
54.8363
53.6327
52.1708
50.4055
48.2853
45.7527
42.7452
39.1963
35.0396
30.2142
24.6728
18.3931
11.3911
3.72122
-4.35409
58.9192
58.7676
58.6111
58.4789
58.3485
58.1997
58.021
57.8025
57.5327
57.1981
56.7841
56.2747
55.6517
54.8946
53.98
52.8813
51.5685
50.0076
48.1612
45.9884
43.4455
40.4877
37.0713
33.1568
28.7143
23.729
18.2088
12.1923
5.74912
-0.912462
58.0418
57.8827
57.7066
57.5434
57.3723
57.1739
56.9371
56.6526
56.3093
55.8944
55.3941
54.7932
54.0752
53.2213
52.2105
51.0196
49.623
47.9928
46.099
43.9106
41.3962
38.526
35.2735
31.6192
27.5537
23.082
18.2283
13.0403
7.58876
2.03268
57.1502
56.9842
56.7897
56.5971
56.3875
56.1424
55.8514
55.5057
55.0947
54.6067
54.0289
53.3474
52.5471
51.6115
50.5224
49.2601
47.8035
46.1305
44.2184
42.0446
39.5883
36.8313
33.7606
30.37
26.6635
22.6571
18.3824
13.8875
9.23667
4.55012
56.2491
56.0768
55.8651
55.645
55.3995
55.1111
54.7701
54.3683
53.8961
53.3428
52.6966
51.9453
51.0756
50.0732
48.9228
47.6084
46.1133
44.4207
42.5142
40.3787
38.0018
35.3742
32.4924
29.3594
25.9866
22.3959
18.6201
14.704
10.703
6.70802
55.3431
55.1653
54.9378
54.6925
54.4138
54.0858
53.6993
53.2469
52.7202
52.1094
51.4043
50.594
49.6673
48.6124
47.4167
46.0677
44.5528
42.8599
40.9782
38.8987
36.6153
34.1256
31.4324
28.5441
25.4766
22.2533
18.9057
15.4735
12.003
8.56316
54.4374
54.2548
54.0131
53.7448
53.4361
53.0722
52.6449
52.1478
51.5733
50.913
50.1581
49.2994
48.3277
47.2333
46.0067
44.6385
43.1196
41.4423
39.6001
37.5889
35.4075
33.0582
30.5477
27.8879
25.0961
22.1953
19.2145
16.1875
13.1525
10.1619
53.5373
53.3507
53.0965
52.8075
52.472
52.0762
51.613
51.0768
50.4613
49.7594
48.9635
48.0664
47.0606
45.9388
44.6939
43.3194
41.8097
40.1602
38.3682
36.4332
34.3576
32.1467
29.8098
27.3601
24.8151
22.1963
19.5291
16.8423
14.1668
11.5425
52.6485
52.4586
52.1935
51.8863
51.5271
51.1035
50.6091
50.0396
49.3897
48.6535
47.825
46.8986
45.8687
44.7299
43.4777
42.1079
40.6175
39.005
37.2704
35.416
33.4463
31.3689
29.1941
26.9356
24.61
22.2367
19.8379
17.4373
15.0601
12.7368
51.7766
51.5842
51.3098
50.987
50.6072
50.1596
49.6389
49.0415
48.3633
47.5998
46.7465
45.7991
44.7537
43.6071
42.3565
41
39.5369
37.9677
36.2948
34.5222
32.6561
30.705
28.6799
26.5938
24.4621
22.3023
20.1329
17.9739
15.8454
13.7709
50.9275
50.7334
50.4513
50.1151
49.7179
49.2502
48.7075
48.0873
47.3867
46.6023
45.7309
44.7698
43.7166
42.5696
41.3279
39.9914
38.5611
37.0393
35.4299
33.7381
31.9712
30.1381
28.2495
26.3179
24.3571
22.3823
20.4093
18.4546
16.5343
14.6667
50.1071
49.912
49.6237
49.2764
48.8648
48.3804
47.8199
47.1817
46.4639
45.6643
44.7809
43.8123
42.7575
41.6162
40.389
39.0773
37.6835
36.2111
34.665
33.0515
31.378
29.6537
27.8887
26.0945
24.2836
22.469
20.6641
18.8825
17.1371
15.4424
49.3217
49.1261
48.833
48.4767
48.0533
47.5555
46.981
46.329
45.5987
44.7888
43.8985
42.9276
41.8762
40.7454
39.5369
38.2531
36.8976
35.475
33.9906
32.4513
30.8647
29.2395
27.5855
25.913
24.233
22.5568
20.8958
19.261
17.6631
16.1132
48.5772
48.3817
48.0851
47.7217
47.2889
46.7806
46.1955
45.5334
44.7945
43.9785
43.0856
42.1165
41.0725
39.9555
38.7682
37.5142
36.1976
34.8235
33.3981
31.9281
30.4211
28.8855
27.3303
25.7649
24.1989
22.642
21.1039
19.5937
18.12
16.6919
47.88
47.6851
47.386
47.017
46.5769
46.0607
45.4677
44.7988
44.0547
43.236
42.3438
41.3797
40.3458
39.2448
38.0803
36.8564
35.5779
34.2504
32.8801
31.4738
30.039
28.5835
27.1156
25.6437
24.1764
22.7219
21.2886
19.8839
18.5151
17.1891
47.2365
47.0424
46.7416
46.3683
45.9226
45.4006
44.8023
44.129
43.3823
42.5636
41.6747
40.7177
39.6956
38.6119
37.4705
36.2762
35.0341
33.7501
32.4305
31.0819
29.7115
28.3268
26.9352
25.5444
24.1619
22.7949
21.4505
20.1349
18.8541
17.6139
46.6533
46.4601
46.158
45.7814
45.3314
44.8053
44.2034
43.5279
42.7807
41.9639
41.0798
40.1314
39.122
38.0557
36.9369
35.7706
34.5624
33.3182
32.0441
30.7469
29.4333
28.1102
26.7846
25.4633
24.153
22.8601
21.5905
20.3496
19.1424
17.9736
46.1371
45.9448
45.6415
45.2619
44.8086
44.2795
43.6756
42.9992
42.2529
41.4392
40.561
39.6217
38.6251
37.5755
36.4779
35.3374
34.1598
32.951
31.7171
30.4646
29.2
27.9297
26.6602
25.3976
24.148
22.9169
21.7095
20.5305
19.3842
18.2743
45.6954
45.5035
45.1983
44.8156
44.3596
43.8286
43.2236
42.5474
41.8028
40.9929
40.1209
39.1905
38.2059
37.1718
36.0932
34.9755
33.8246
32.6463
31.4468
30.2323
29.0089
27.7827
26.5598
25.3457
24.1459
22.9654
21.8088
20.6802
19.5832
18.5211
45.3363
45.1435
44.8344
44.4475
43.9886
43.4561
42.8506
42.175
41.4327
40.6267
39.7607
38.8386
37.8648
36.8442
35.7819
34.6837
33.5551
32.4022
31.2309
30.0473
28.8572
27.6666
26.481
25.3056
24.1454
23.005
21.8885
20.7996
19.7414
18.7167
45.0696
44.8733
44.5577
44.1665
43.7057
43.1719
42.5659
41.8909
41.1503
40.3478
39.4867
38.5714
37.6064
36.5965
35.5473
34.4643
33.3532
32.2199
31.0704
29.9105
28.7459
27.5822
26.4248
25.2785
24.1481
23.0377
21.9512
20.8918
19.8625
18.8658
44.9075
44.6904
44.3598
43.9651
43.5044
42.9708
42.3653
41.6916
40.9535
40.1542
39.2975
38.3876
37.4291
36.4272
35.3873
34.315
33.216
32.0963
30.9617
29.818
28.6707
27.5254
26.387
25.2603
24.1499
23.0596
21.9931
20.9536
19.9436
18.9654
44.9149
44.6301
44.2719
43.8722
43.4099
42.8746
42.2681
41.5946
40.8577
40.0605
39.2065
38.3
37.3456
36.3484
35.3137
34.2473
33.1549
32.0424
30.9155
29.7801
28.6416
27.5054
26.3765
25.2596
24.159
23.0787
22.022
20.9921
19.9915
19.0222
-240.834
-216.406
-170.895
-82.7771
-89.9467
-92.524
-53.008
-71.1274
-84.7513
-47.1227
-63.1692
-75.0506
-35.9703
-47.7377
-57.092
-25.8727
-34.8676
-42.272
-18.2577
-25.2562
-31.0181
-12.1622
-17.6314
-22.1325
-7.1595
-11.5029
-15.0902
-3.04729
-6.55745
-9.47168
0.358175
-2.5223
-4.92923
3.2025
0.804955
-1.21345
5.59462
3.57234
1.85616
7.61829
5.89135
4.41367
9.33879
7.84691
6.5598
10.8074
9.50453
8.37136
12.0649
10.9153
9.90766
13.1439
12.1196
11.2151
14.0707
13.1494
12.3303
14.8667
14.0306
13.2826
15.5495
14.7841
14.0953
16.1334
15.4267
14.7874
16.6303
15.9722
15.3742
17.0496
16.4318
15.8681
17.3991
16.8142
16.2788
17.6853
17.1269
16.6143
17.9117
17.3739
16.8792
18.0837
17.5613
17.0797
18.1984
17.6863
17.2138
18.264
17.7578
17.2898
-128.66
-150.529
-173.271
-191.681
-205.637
-210.268
-202.676
-185.248
-162.384
-137.711
-113.822
-92.3055
-73.8662
-58.5974
-46.244
-36.3983
-28.6202
-22.5018
-17.6933
-13.9085
-10.9192
-8.54633
-6.65075
-5.12445
-3.88371
-2.86348
-2.01298
-1.29238
-0.670386
-0.117187
-106.287
-139.606
-164.946
-182.946
-194.51
-196.431
-187.463
-170.763
-149.873
-127.654
-106.202
-86.8172
-70.0895
-56.1106
-44.6817
-35.471
-28.1125
-22.261
-17.6152
-13.9241
-10.9844
-8.63377
-6.74394
-5.21409
-3.96502
-2.93447
-2.0733
-1.34265
-0.711605
-0.15267
-103.527
-130.125
-150.937
-165.333
-172.667
-171.941
-163.663
-149.838
-132.674
-114.252
-96.2331
-79.696
-65.1826
-52.8411
-42.5757
-34.1642
-27.3391
-21.8336
-17.4059
-13.8477
-10.9852
-8.67615
-6.80588
-5.28231
-4.03193
-2.99607
-2.12786
-1.38976
-0.751519
-0.188031
-89.7151
-108.314
-124.916
-136.857
-142.499
-142.201
-136.51
-126.542
-113.693
-99.4734
-85.1774
-71.7085
-59.5854
-49.0257
-40.0424
-32.5273
-26.3138
-21.2164
-17.0552
-13.6669
-10.9096
-8.66324
-6.82813
-5.32238
-4.0792
-3.04433
-2.17374
-1.43162
-0.788708
-0.222369
-68.7944
-82.728
-96.5785
-107.355
-113.166
-114.142
-110.971
-104.426
-95.4283
-85.0148
-74.1426
-63.5482
-53.7141
-44.9027
-37.211
-30.6249
-25.0645
-20.4176
-16.5613
-13.3756
-10.7501
-8.58758
-6.80409
-5.32879
-4.10243
-3.07585
-2.20837
-1.46641
-0.82199
-0.254995
-51.303
-61.9014
-73.0802
-82.3543
-88.0675
-90.1071
-88.9196
-85.0591
-79.1261
-71.8078
-63.7949
-55.6731
-47.8715
-40.6646
-34.1986
-28.5243
-23.6272
-19.4536
-15.9293
-12.9728
-10.5029
-8.44423
-6.72872
-5.29694
-4.09769
-3.08742
-2.2293
-1.49231
-0.850117
-0.285165
-37.926
-46.0042
-54.8059
-62.5281
-67.8713
-70.5722
-70.7773
-68.8311
-65.1404
-60.1699
-54.4108
-48.3132
-42.2386
-36.4459
-31.0999
-26.2883
-22.0407
-18.3467
-15.1705
-12.4626
-10.168
-8.23101
-6.59893
-5.22355
-4.06191
-3.07637
-2.23432
-1.50765
-0.871936
-0.312207
-27.5341
-33.8589
-40.8577
-47.2679
-52.0963
-55.0377
-56.0835
-55.4172
-53.3085
-50.0699
-46.0427
-41.5619
-36.9186
-32.3409
-27.9915
-23.9744
-20.3453
-17.123
-14.3003
-11.8534
-9.74879
-7.94845
-6.41358
-5.10668
-3.99291
-3.04063
-2.22164
-1.51098
-0.886415
-0.335512
-19.4291
-24.5366
-30.2034
-35.5395
-39.7998
-42.7115
-44.2133
-44.3765
-43.3638
-41.3804
-38.6605
-35.4476
-31.9687
-28.4149
-24.9345
-21.6335
-18.5798
-15.8102
-13.3374
-11.1566
-9.25168
-7.59949
-6.17345
-4.94587
-3.88957
-2.97885
-2.18993
-1.50116
-0.892691
-0.354568
-13.0333
-17.2555
-21.9237
-26.3995
-30.1257
-32.8829
-34.5979
-35.2776
-35.0102
-33.9258
-32.1826
-29.9539
-27.4113
-24.7089
-21.9747
-19.308
-16.7797
-14.4359
-12.3016
-10.3857
-8.68533
-7.18918
-5.88108
-4.74201
-3.75183
-2.89042
-2.13838
-1.47739
-0.890112
-0.368972
-7.9057
-11.4619
-15.3726
-19.1688
-22.4301
-24.9857
-26.7692
-27.7562
-27.9875
-27.5415
-26.522
-25.0501
-23.2523
-21.2491
-19.1469
-17.0335
-14.977
-13.0264
-11.2134
-9.55584
-8.06011
-6.72429
-5.54058
-4.49733
-3.58064
-2.77554
-2.06676
-1.43925
-0.878267
-0.378449
-3.73997
-6.78309
-10.1101
-13.368
-16.2353
-18.5827
-20.3532
-21.5113
-22.0698
-22.0726
-21.5856
-20.6912
-19.4809
-18.0466
-16.4738
-14.8373
-13.1986
-11.6055
-10.0925
-8.68221
-7.38738
-6.21283
-5.15729
-4.21518
-3.37794
-2.63517
-1.97542
-1.38676
-0.857004
-0.382865
-0.318019
-2.95779
-5.8274
-8.65589
-11.1937
-13.344
-15.0584
-16.3009
-17.069
-17.384
-17.2859
-16.8293
-16.0791
-15.1038
-13.9703
-12.7402
-11.467
-10.1947
-8.95748
-7.78011
-6.67906
-5.66368
-4.73758
-3.89991
-3.14654
-2.471
-1.86526
-1.32033
-0.826444
-0.382223
2.5197
0.202352
-2.3036
-4.78659
-7.05047
-9.0199
-10.658
-11.9311
-12.8285
-13.3579
-13.5417
-13.4152
-13.0231
-12.4154
-11.6434
-10.7565
-9.79971
-8.81189
-7.82502
-6.86401
-5.94702
-5.08618
-4.28847
-3.55661
-2.88996
-2.28535
-1.73775
-1.24077
-0.786973
-0.376668
4.89163
2.83554
0.622484
-1.57983
-3.61506
-5.42385
-6.97782
-8.24832
-9.22079
-9.89469
-10.2813
-10.402
-10.2871
-9.97199
-9.49533
-8.89584
-8.21033
-7.47212
-6.70991
-5.94732
-5.20277
-4.48978
-3.81742
-3.19092
-2.61233
-2.08113
-1.5948
-1.14927
-0.739232
-0.366474
6.88724
5.04535
3.07097
1.09897
-0.744388
-2.41167
-3.88162
-5.13003
-6.14133
-6.91038
-7.44118
-7.746
-7.84428
-7.76086
-7.524
-7.16346
-6.7087
-6.1875
-5.62481
-5.04215
-4.45717
-3.88373
-3.332
-2.80884
-2.31822
-1.86167
-1.43873
-1.04734
-0.684093
-0.352035
8.57501
6.91047
5.13248
3.35094
1.6691
0.125113
-1.26356
-2.47886
-3.50518
-4.33462
-4.96669
-5.40749
-5.66899
-5.76796
-5.72469
-5.56153
-5.30158
-4.96748
-4.58036
-4.15918
-3.72022
-3.27691
-2.83976
-2.41653
-2.01248
-1.63066
-1.27222
-0.936789
-0.622632
-0.333848
10.0081
8.49166
6.87668
5.25391
3.70889
2.27276
0.958603
-0.218438
-1.24393
-2.1091
-2.81084
-3.35117
-3.73682
-3.97866
-4.09082
-4.08976
-3.9932
-3.8192
-3.58526
-3.30767
-3.00096
-2.67763
-2.34799
-2.02015
-1.70012
-1.39199
-1.09817
-0.819635
-0.556094
-0.312497
11.2284
9.83626
8.35743
6.86771
5.43876
4.09629
2.85042
1.7135
0.698726
-0.185121
-0.933538
-1.54592
-2.02538
-2.37853
-2.61487
-2.74619
-2.78583
-2.74788
-2.64654
-2.4955
-2.3074
-2.09355
-1.86365
-1.62574
-1.38617
-1.14971
-0.919663
-0.69807
-0.485854
-0.288632
12.2687
10.9816
9.6171
8.23937
6.90928
5.64831
4.46449
3.36711
2.36881
1.47784
0.699326
0.0354957
-0.514358
-0.953778
-1.28884
-1.52773
-1.68023
-1.75713
-1.76974
-1.72931
-1.64662
-1.53162
-1.39323
-1.23909
-1.07561
-0.907894
-0.739874
-0.574399
-0.413384
-0.26295
13.1556
11.9574
10.6892
9.40596
8.16006
6.96955
5.84032
4.78181
3.8033
2.91291
2.1162
1.41632
0.814154
0.308276
-0.104858
-0.430681
-0.676159
-0.849391
-0.959181
-1.01463
-1.02474
-0.998128
-0.942748
-0.865725
-0.773259
-0.670587
-0.562013
-0.450987
-0.340216
-0.236181
13.9102
12.7874
11.6003
10.397
9.22286
8.0935
7.01361
5.99031
5.03255
4.14767
3.34111
2.61656
1.97588
1.41913
0.944594
0.548902
0.227278
-0.0261891
-0.21823
-0.356068
-0.447112
-0.498677
-0.517752
-0.510823
-0.483756
-0.441737
-0.389269
-0.330219
-0.267912
-0.209066
14.5497
13.4904
12.3717
11.2357
10.1225
9.04564
8.00886
7.01797
6.0809
5.20442
4.39379
3.65289
2.98423
2.38884
1.86632
1.41483
1.03128
0.711497
0.450441
0.242476
0.0816019
-0.0383114
-0.123319
-0.179234
-0.21151
-0.225166
-0.22477
-0.214462
-0.198035
-0.182346
15.0876
14.0818
13.0203
11.9407
10.8789
9.84676
8.84733
7.88546
6.96805
6.10136
5.29044
4.53919
3.85047
3.226
2.66626
2.17056
1.73707
1.36298
1.04461
0.777635
0.557262
0.378405
0.235872
0.124504
0.0392921
-0.0245502
-0.0715598
-0.106041
-0.132134
-0.156753
15.5347
14.5734
13.5593
12.5264
11.5075
10.513
9.5454
8.60885
7.70939
6.85282
6.0439
5.28651
4.58369
3.93756
3.34926
2.81889
2.34559
1.92757
1.56225
1.24636
0.9761
0.747283
0.555479
0.396136
0.264684
0.156597
0.067427
-0.00721293
-0.0717142
-0.132991
15.8997
14.9747
13.9991
13.0043
12.0204
11.0568
10.1158
9.20072
8.31701
7.46999
6.66422
5.90349
5.19092
4.52888
3.91895
3.3618
2.85726
2.40434
2.00129
1.64567
1.33449
1.0643
0.831338
0.631568
0.460827
0.314851
0.189311
0.0797911
-0.0182758
-0.111761
16.1881
15.2918
14.3466
13.3819
12.4257
11.4868
10.5671
9.6696
8.79907
7.96054
7.1583
6.39606
5.67696
5.00353
4.3776
3.80029
3.2719
2.79203
2.35954
1.97266
1.629
1.32574
1.0596
0.827018
0.624175
0.447045
0.291426
0.152913
0.0268164
-0.0936697
16.4058
15.5308
14.6082
13.6658
12.7302
11.8098
10.9062
10.022
9.16158
8.32974
7.53057
6.76768
6.04422
5.3628
4.72545
4.13353
3.58772
3.08799
2.63367
2.22344
1.85541
1.52715
1.23583
0.978213
0.750761
0.549651
0.370801
0.209838
0.0620107
-0.0793882
16.5519
15.6911
14.7836
13.8563
12.9348
12.027
11.1344
10.2596
9.40656
8.57967
7.78297
7.02001
6.29393
5.60741
4.9626
4.36102
3.80358
3.29054
2.82151
2.39548
2.01088
1.66558
1.35703
1.08224
0.837854
0.62021
0.425324
0.248885
0.0861717
-0.0692357
16.6324
15.7771
14.8768
13.9569
13.0422
12.1403
11.2527
10.3817
9.53156
8.7066
7.91071
7.14736
6.41967
5.73031
5.08149
4.47481
3.91131
3.39136
2.91475
2.48063
2.08758
1.73365
1.41642
1.13301
0.880185
0.654346
0.451565
0.267586
0.0977867
-0.0636954
)
;

boundaryField
{
    inlet
    {
        type            zeroGradient;
    }
    outlet
    {
        type            fixedValue;
        value           uniform 0;
    }
    flap
    {
        type            zeroGradient;
    }
    upperWall
    {
        type            zeroGradient;
    }
    lowerWall
    {
        type            zeroGradient;
    }
    frontAndBack
    {
        type            empty;
    }
}


// ************************************************************************* //
