/*--------------------------------*- C++ -*----------------------------------*\
| =========                 |                                                 |
| \\      /  F ield         | OpenFOAM: The Open Source CFD Toolbox           |
|  \\    /   O peration     | Version:  5.x                                   |
|   \\  /    A nd           | Web:      www.OpenFOAM.org                      |
|    \\/     M anipulation  |                                                 |
\*---------------------------------------------------------------------------*/
FoamFile
{
    version     2.0;
    format      ascii;
    class       pointVectorField;
    location    "0.1";
    object      pointDisplacement;
}
// * * * * * * * * * * * * * * * * * * * * * * * * * * * * * * * * * * * * * //

dimensions      [0 1 0 0 0 0 0];

internalField   nonuniform List<vector> 
5828
(
(0 0 0)
(0.000845851 0 0)
(0.00162146 0 0)
(0.00231313 0 0)
(0.0029309 0 0)
(0.00348313 0 0)
(0.00397676 0 0)
(0.00441748 0 0)
(0.00480988 0 0)
(0.00515765 0 0)
(0.00546364 0 0)
(0.00572997 0 0)
(0.00595811 0 0)
(0.00614895 0 0)
(0.00630273 0 0)
(0.00641909 0 0)
(0.00649698 0 0)
(0.00653451 0 0)
(0.0065288 0 0)
(0.00647569 0 0)
(0.00636948 0 0)
(0.0062025 0 0)
(0.0059648 0 0)
(0.00564394 0 0)
(0.00522536 0 0)
(0.00469402 0 0)
(0.00403916 0 0)
(0.00326565 0 0)
(0.00242078 0 0)
(0.00166351 0 0)
(-1.09288e-16 0 -2.83309e-23)
(0 0 0)
(0.000845456 3.19717e-06 0)
(0.0016208 6.19568e-06 0)
(0.00231228 8.99692e-06 0)
(0.00292994 1.16802e-05 0)
(0.00348213 1.43115e-05 0)
(0.00397579 1.69476e-05 0)
(0.00441662 1.96397e-05 0)
(0.00480923 2.24363e-05 0)
(0.00515732 2.53859e-05 0)
(0.00546374 2.85402e-05 0)
(0.00573066 3.1958e-05 0)
(0.00595959 3.57099e-05 0)
(0.00615145 3.98851e-05 0)
(0.00630659 4.46005e-05 0)
(0.00642474 5.00145e-05 0)
(0.00650501 5.63453e-05 0)
(0.00654575 6.38987e-05 0)
(0.00654439 7.31075e-05 0)
(0.00649728 8.45889e-05 0)
(0.00639939 9.92257e-05 0)
(0.00624408 0.00011828 0)
(0.00602285 0.000143544 0)
(0.00572535 0.000177526 0)
(0.00533994 0.000223631 0)
(0.00485559 0.000286239 0)
(0.00426668 0.000370372 0)
(0.00358393 0.00048021 0)
(0.00285831 0.000614337 0)
(0.00223544 0.000751156 0)
(0.00125229 0.00108971 1.41593e-13)
(0 0 0)
(0.000844919 6.37883e-06 0)
(0.00161987 1.23613e-05 0)
(0.0023111 1.79497e-05 0)
(0.00292864 2.33015e-05 0)
(0.00348085 2.85478e-05 0)
(0.00397471 3.38014e-05 0)
(0.00441592 3.91636e-05 0)
(0.00480914 4.47297e-05 0)
(0.0051581 5.05947e-05 0)
(0.00546574 5.68593e-05 0)
(0.00573429 6.36366e-05 0)
(0.00596539 7.10618e-05 0)
(0.00616012 7.9304e-05 0)
(0.00631905 8.85832e-05 0)
(0.00644226 9.91943e-05 0)
(0.00652929 0.00011154 0)
(0.00657916 0.00012618 0)
(0.00659023 0.000143898 0)
(0.00656018 0.000165796 0)
(0.00648593 0.000193432 0)
(0.00636357 0.000229 0)
(0.00618856 0.000275558 0)
(0.00595606 0.000337299 0)
(0.00566203 0.000419757 0)
(0.00530531 0.000529747 0)
(0.00489194 0.000674423 0)
(0.00444304 0.000858089 0)
(0.00400816 0.0010735 0)
(0.00368505 0.00128018 0)
(0.00326693 0.00167032 1.4392e-13)
(0 0 0)
(0.000844525 9.53084e-06 0)
(0.00161919 1.84691e-05 0)
(0.00231029 2.68166e-05 0)
(0.00292783 3.48077e-05 0)
(0.00348024 4.26366e-05 0)
(0.00397449 5.04703e-05 0)
(0.00441637 5.84577e-05 0)
(0.00481058 6.67384e-05 0)
(0.00516092 7.54497e-05 0)
(0.00547044 8.47356e-05 0)
(0.00574151 9.47558e-05 0)
(0.00597595 0.000105698 0)
(0.00617512 0.000117794 0)
(0.00633993 0.000131342 0)
(0.00647095 0.000146731 0)
(0.00656842 0.000164491 0)
(0.00663232 0.00018534 0)
(0.00666238 0.000210266 0)
(0.0066582 0.000240631 0)
(0.00661937 0.00027831 0)
(0.00654581 0.000325868 0)
(0.00643819 0.000386769 0)
(0.00629884 0.000465564 0)
(0.00613303 0.000567962 0)
(0.00595089 0.000700454 0)
(0.00576978 0.000868824 0)
(0.00561606 0.00107406 0)
(0.00552263 0.00130274 0)
(0.00551406 0.0015075 0)
(0.00563491 0.0018488 1.30025e-13)
(0 0 0)
(0.000844042 1.26382e-05 0)
(0.00161835 2.44893e-05 0)
(0.00230927 3.55534e-05 0)
(0.00292683 4.61388e-05 0)
(0.0034795 5.65008e-05 0)
(0.0039743 6.68574e-05 0)
(0.00441706 7.74022e-05 0)
(0.00481258 8.83145e-05 0)
(0.00516475 9.97686e-05 0)
(0.00547675 0.000111944 0)
(0.00575115 0.000125036 0)
(0.00598998 0.000139269 0)
(0.00619492 0.000154915 0)
(0.00636733 0.000172313 0)
(0.00650837 0.000191902 0)
(0.0066191 0.000214257 0)
(0.0067006 0.000240142 0)
(0.00675414 0.000270575 0)
(0.00678143 0.000306911 0)
(0.00678494 0.000350939 0)
(0.00676844 0.000404988 0)
(0.00673774 0.000472011 0)
(0.00670169 0.000555596 0)
(0.00667349 0.000659775 0)
(0.0066717 0.000788379 0)
(0.00672012 0.000943466 0)
(0.00684322 0.00112195 0)
(0.00705054 0.00130896 0)
(0.00729831 0.00146608 0)
(0.00779616 0.00169519 1.91274e-13)
(0 0 0)
(0.000843459 1.56851e-05 0)
(0.00161733 3.03904e-05 0)
(0.002308 4.4113e-05 0)
(0.00292558 5.72318e-05 0)
(0.00347855 7.00595e-05 0)
(0.003974 8.28623e-05 0)
(0.00441783 9.5874e-05 0)
(0.00481491 0.000109308 0)
(0.00516928 0.00012337 0)
(0.00548425 0.000138265 0)
(0.00576257 0.00015421 0)
(0.00600658 0.000171451 0)
(0.00621827 0.000190272 0)
(0.00639948 0.000211019 0)
(0.00655197 0.000234124 0)
(0.00667763 0.000260132 0)
(0.00677863 0.00028974 0)
(0.0068577 0.000323832 0)
(0.00691843 0.000363517 0)
(0.00696576 0.000410158 0)
(0.00700653 0.000465361 0)
(0.00705028 0.000530904 0)
(0.00711008 0.000608516 0)
(0.00720325 0.000699444 0)
(0.00735135 0.000803649 0)
(0.00757772 0.000918562 0)
(0.0078993 0.00103744 0)
(0.00830525 0.00114772 0)
(0.00870992 0.00122984 0)
(0.00946815 0.00137421 8.27181e-23)
(0 0 0)
(0.000842758 1.86555e-05 0)
(0.00161608 3.61412e-05 0)
(0.00230645 5.24488e-05 0)
(0.002924 6.8024e-05 0)
(0.00347728 8.32336e-05 0)
(0.00397344 9.83873e-05 0)
(0.00441846 0.000113755 0)
(0.0048173 0.000129578 0)
(0.00517411 0.000146085 0)
(0.00549237 0.000163498 0)
(0.00577504 0.000182045 0)
(0.00602471 0.00020197 0)
(0.00624372 0.000223548 0)
(0.00643433 0.000247097 0)
(0.00659888 0.000272994 0)
(0.00673997 0.00030169 0)
(0.0068607 0.000333724 0)
(0.00696493 0.000369723 0)
(0.00705765 0.000410394 0)
(0.00714541 0.000456471 0)
(0.0072368 0.0005086 0)
(0.00734298 0.000567127 0)
(0.00747808 0.000631716 0)
(0.00765903 0.000700764 0)
(0.00790425 0.000770592 0)
(0.00822974 0.000834624 0)
(0.00863998 0.000883243 0)
(0.00910875 0.00090622 0)
(0.00954018 0.000901778 0)
(0.0103727 0.000831448 1.25849e-13)
(0 0 0)
(0.00084192 2.15343e-05 0)
(0.00161458 4.1712e-05 0)
(0.00230454 6.0517e-05 0)
(0.00292201 7.84576e-05 0)
(0.00347558 9.595e-05 0)
(0.00397247 0.000113343 0)
(0.00441872 0.000130937 0)
(0.0048194 0.000148998 0)
(0.0051788 0.000167768 0)
(0.00550052 0.000187475 0)
(0.00578773 0.000208347 0)
(0.00604325 0.000230613 0)
(0.00626973 0.000254514 0)
(0.00646979 0.000280315 0)
(0.00664622 0.000308302 0)
(0.00680218 0.000338786 0)
(0.00694139 0.000372094 0)
(0.00706843 0.000408538 0)
(0.00718899 0.000448362 0)
(0.00731025 0.000491634 0)
(0.00744107 0.000538072 0)
(0.00759219 0.00058676 0)
(0.00777589 0.00063574 0)
(0.00800502 0.000681466 0)
(0.00829048 0.000718212 0)
(0.0086365 0.000737774 0)
(0.00903227 0.00073035 0)
(0.00943922 0.000688948 0)
(0.00977317 0.000623483 0)
(0.0102582 0.000392397 8.68185e-14)
(0 0 0)
(0.000840917 2.43085e-05 0)
(0.00161276 4.70771e-05 0)
(0.0023022 6.82799e-05 0)
(0.0029195 8.84826e-05 0)
(0.00347329 0.000108147 0)
(0.00397087 0.000127655 0)
(0.00441835 0.000147335 0)
(0.00482089 0.000167467 0)
(0.00518288 0.000188303 0)
(0.00550808 0.000210072 0)
(0.00579982 0.000232985 0)
(0.0060611 0.000257246 0)
(0.00629483 0.000283049 0)
(0.00650389 0.000310585 0)
(0.00669139 0.000340029 0)
(0.00686079 0.000371534 0)
(0.00701614 0.000405197 0)
(0.00716224 0.000441017 0)
(0.00730486 0.000478806 0)
(0.00745084 0.000518071 0)
(0.00760813 0.000557827 0)
(0.00778549 0.000596348 0)
(0.00799166 0.000630864 0)
(0.00823372 0.000657261 0)
(0.00851406 0.000669942 0)
(0.00882573 0.000662238 0)
(0.00914622 0.000628134 0)
(0.00943217 0.000566987 0)
(0.00962347 0.00049487 0)
(0.00971347 0.000326478 6.54403e-14)
(0 0 0)
(0.000839722 2.69667e-05 0)
(0.00161058 5.22148e-05 0)
(0.00229935 7.57058e-05 0)
(0.00291634 9.8058e-05 0)
(0.00347026 0.000119773 0)
(0.00396844 0.000141265 0)
(0.00441708 0.000162879 0)
(0.0048214 0.000184911 0)
(0.0051859 0.000207613 0)
(0.00551445 0.000231205 0)
(0.0058105 0.000255881 0)
(0.00607723 0.000281806 0)
(0.00631768 0.000309121 0)
(0.00653491 0.000337933 0)
(0.00673217 0.000368304 0)
(0.00691303 0.000400229 0)
(0.00708152 0.000433596 0)
(0.00724227 0.000468132 0)
(0.00740053 0.000503318 0)
(0.0075622 0.000538278 0)
(0.00773353 0.000571635 0)
(0.00792056 0.000601366 0)
(0.00812809 0.000624684 0)
(0.00835789 0.000638069 0)
(0.008606 0.000637633 0)
(0.00885941 0.000620134 0)
(0.00909306 0.000585069 0)
(0.00927099 0.000538155 0)
(0.00936103 0.000495274 0)
(0.00931441 0.000455228 6.90314e-14)
(0 0 0)
(0.000838308 2.94995e-05 0)
(0.00160798 5.71066e-05 0)
(0.00229591 8.2768e-05 0)
(0.00291245 0.00010715 0)
(0.00346635 0.000130789 0)
(0.003965 0.000154124 0)
(0.00441465 0.000177519 0)
(0.00482061 0.000201273 0)
(0.00518742 0.00022564 0)
(0.00551906 0.000250826 0)
(0.00581908 0.000276998 0)
(0.00609072 0.000304284 0)
(0.00633714 0.000332764 0)
(0.00656143 0.000362467 0)
(0.00676686 0.000393347 0)
(0.00695688 0.000425263 0)
(0.00713527 0.000457933 0)
(0.00730616 0.000490889 0)
(0.00747396 0.000523399 0)
(0.00764319 0.000554399 0)
(0.00781811 0.000582411 0)
(0.00800208 0.000605514 0)
(0.00819651 0.000621413 0)
(0.00839947 0.000627719 0)
(0.00860407 0.000622606 0)
(0.00879709 0.000605983 0)
(0.00895919 0.000581172 0)
(0.00906925 0.000556279 0)
(0.00911706 0.000542088 0)
(0.00910259 0.000565561 -8.93355e-23)
(0 0 0)
(0.000836647 3.18982e-05 0)
(0.00160491 6.1736e-05 0)
(0.00229179 8.94433e-05 0)
(0.00290769 0.000115728 0)
(0.0034614 0.000141159 0)
(0.00396034 0.000166195 0)
(0.00441082 0.000191212 0)
(0.00481818 0.000216516 0)
(0.00518703 0.00024235 0)
(0.00552141 0.000268908 0)
(0.0058249 0.000296329 0)
(0.00610082 0.000324701 0)
(0.00635229 0.00035405 0)
(0.00658239 0.000384333 0)
(0.00679426 0.000415414 0)
(0.0069911 0.000447046 0)
(0.00717626 0.00047883 0)
(0.00735316 0.00051018 0)
(0.0075252 0.000540275 0)
(0.00769545 0.000568022 0)
(0.00786627 0.000592051 0)
(0.00803871 0.000610768 0)
(0.00821174 0.000622533 0)
(0.00838151 0.000626036 0)
(0.00854082 0.000620934 0)
(0.00867965 0.000608748 0)
(0.00878727 0.000593715 0)
(0.00885684 0.00058257 0)
(0.00889074 0.000580732 0)
(0.00892691 0.000603985 -1.29638e-13)
(0 0 0)
(0.00083471 3.41555e-05 0)
(0.00160131 6.60894e-05 0)
(0.00228691 9.57123e-05 0)
(0.00290196 0.000123769 0)
(0.00345527 0.000150855 0)
(0.00395429 0.000177448 0)
(0.00440535 0.000203931 0)
(0.00481384 0.00023061 0)
(0.00518439 0.000257723 0)
(0.00552107 0.000285445 0)
(0.00582747 0.00031389 0)
(0.0061069 0.000343108 0)
(0.00636244 0.000373077 0)
(0.00659705 0.000403697 0)
(0.00681365 0.000434764 0)
(0.0070151 0.000465961 0)
(0.00720423 0.000496824 0)
(0.0073837 0.000526721 0)
(0.00755586 0.000554837 0)
(0.00772246 0.000580167 0)
(0.00788427 0.000601561 0)
(0.00804062 0.000617822 0)
(0.00818896 0.000627907 0)
(0.00832467 0.000631246 0)
(0.00844144 0.000628169 0)
(0.00853275 0.000620332 0)
(0.00859481 0.000610879 0)
(0.00863029 0.000603783 0)
(0.00864895 0.000601608 0)
(0.00868799 0.000608692 4.08648e-14)
(0 0 0)
(0.000832468 3.62655e-05 0)
(0.00159712 7.01551e-05 0)
(0.0022812 0.000101559 0)
(0.00289515 0.000131254 0)
(0.00344783 0.000159858 0)
(0.00394668 0.000187862 0)
(0.00439805 0.000215656 0)
(0.00480733 0.000243544 0)
(0.00517919 0.000271755 0)
(0.00551767 0.000300449 0)
(0.00582637 0.000329714 0)
(0.00610853 0.000359569 0)
(0.00636713 0.000389955 0)
(0.00660499 0.000420728 0)
(0.00682473 0.000451642 0)
(0.00702886 0.000482342 0)
(0.00721965 0.000512343 0)
(0.00739904 0.000541029 0)
(0.00756846 0.000567653 0)
(0.00772858 0.000591365 0)
(0.007879 0.000611275 0)
(0.00801792 0.000626565 0)
(0.00814202 0.000636652 0)
(0.00824658 0.000641395 0)
(0.0083262 0.000641258 0)
(0.00837651 0.000637334 0)
(0.00839691 0.000631065 0)
(0.00839399 0.000623765 0)
(0.00838312 0.00061684 0)
(0.00839403 0.000602244 2.66878e-13)
(0 0 0)
(0.000829895 3.82232e-05 0)
(0.0015923 7.39243e-05 0)
(0.00227458 0.000106972 0)
(0.00288718 0.000138169 0)
(0.00343896 0.000168153 0)
(0.00393736 0.000197424 0)
(0.00438873 0.000226378 0)
(0.00479846 0.000255314 0)
(0.00517119 0.000284455 0)
(0.00551095 0.000313942 0)
(0.0058213 0.000343846 0)
(0.0061054 0.00037416 0)
(0.00636611 0.000404798 0)
(0.00660603 0.000435587 0)
(0.00682754 0.000466262 0)
(0.00703275 0.000496457 0)
(0.00722343 0.000525705 0)
(0.00740091 0.00055344 0)
(0.0075659 0.000579024 0)
(0.0077183 0.000601783 0)
(0.00785698 0.000621084 0)
(0.0079796 0.000636431 0)
(0.00808266 0.000647587 0)
(0.00816176 0.000654675 0)
(0.00821233 0.000658184 0)
(0.00823095 0.00065877 0)
(0.00821723 0.000656755 0)
(0.00817672 0.000651572 0)
(0.00812617 0.000643083 0)
(0.0080303 0.000612267 3.08223e-13)
(0 0 0)
(0.000826928 4.00409e-05 0)
(0.00158674 7.74214e-05 0)
(0.0022669 0.000111986 0)
(0.00287786 0.000144562 0)
(0.00342845 0.000175799 0)
(0.0039261 0.000206207 0)
(0.00437713 0.000236183 0)
(0.00478691 0.000266025 0)
(0.00516007 0.000295943 0)
(0.0055006 0.000326069 0)
(0.00581197 0.000356455 0)
(0.00609725 0.000387079 0)
(0.00635917 0.000417835 0)
(0.00660014 0.000448538 0)
(0.00682225 0.000478918 0)
(0.00702728 0.000508626 0)
(0.00721659 0.000537231 0)
(0.00739103 0.000564244 0)
(0.0075508 0.000589147 0)
(0.00769536 0.000611442 0)
(0.00782326 0.000630721 0)
(0.00793213 0.000646749 0)
(0.0080188 0.000659549 0)
(0.00807965 0.000669463 0)
(0.00811122 0.000677145 0)
(0.00811118 0.000683455 0)
(0.00807938 0.000689334 0)
(0.00801947 0.000695911 0)
(0.00794348 0.000705993 0)
(0.00769871 0.000675498 2.48154e-23)
(0 0 0)
(0.000845851 0 0)
(0.00162146 0 0)
(0.00231313 0 0)
(0.0029309 0 0)
(0.00348313 0 0)
(0.00397676 0 0)
(0.00441748 0 0)
(0.00480988 0 0)
(0.00515765 0 0)
(0.00546364 0 0)
(0.00572997 0 0)
(0.00595811 0 0)
(0.00614895 0 0)
(0.00630273 0 0)
(0.00641909 0 0)
(0.00649698 0 0)
(0.00653451 0 0)
(0.0065288 0 0)
(0.00647569 0 0)
(0.00636948 0 0)
(0.0062025 0 0)
(0.0059648 0 0)
(0.00564394 0 0)
(0.00522536 0 0)
(0.00469402 0 0)
(0.00403916 0 0)
(0.00326565 0 0)
(0.00242078 0 0)
(0.00166351 0 0)
(-7.30122e-18 0 -2.47647e-23)
(0 0 0)
(0.000845456 3.19717e-06 0)
(0.0016208 6.19568e-06 0)
(0.00231228 8.99692e-06 0)
(0.00292994 1.16802e-05 0)
(0.00348213 1.43115e-05 0)
(0.00397579 1.69476e-05 0)
(0.00441662 1.96397e-05 0)
(0.00480923 2.24363e-05 0)
(0.00515732 2.53859e-05 0)
(0.00546374 2.85402e-05 0)
(0.00573066 3.1958e-05 0)
(0.00595959 3.57099e-05 0)
(0.00615145 3.98851e-05 0)
(0.00630659 4.46005e-05 0)
(0.00642474 5.00145e-05 0)
(0.00650501 5.63453e-05 0)
(0.00654575 6.38987e-05 0)
(0.00654439 7.31075e-05 0)
(0.00649728 8.45889e-05 0)
(0.00639939 9.92257e-05 0)
(0.00624408 0.00011828 0)
(0.00602285 0.000143544 0)
(0.00572535 0.000177526 0)
(0.00533994 0.000223631 0)
(0.00485559 0.000286239 0)
(0.00426668 0.000370372 0)
(0.00358393 0.00048021 0)
(0.00285831 0.000614337 0)
(0.00223544 0.000751156 0)
(0.00125229 0.00108971 1.41593e-13)
(0 0 0)
(0.000844919 6.37883e-06 0)
(0.00161987 1.23613e-05 0)
(0.0023111 1.79497e-05 0)
(0.00292864 2.33015e-05 0)
(0.00348085 2.85478e-05 0)
(0.00397471 3.38014e-05 0)
(0.00441592 3.91636e-05 0)
(0.00480914 4.47297e-05 0)
(0.0051581 5.05947e-05 0)
(0.00546574 5.68593e-05 0)
(0.00573429 6.36366e-05 0)
(0.00596539 7.10618e-05 0)
(0.00616012 7.9304e-05 0)
(0.00631905 8.85832e-05 0)
(0.00644226 9.91943e-05 0)
(0.00652929 0.00011154 0)
(0.00657916 0.00012618 0)
(0.00659023 0.000143898 0)
(0.00656018 0.000165796 0)
(0.00648593 0.000193432 0)
(0.00636357 0.000229 0)
(0.00618856 0.000275558 0)
(0.00595606 0.000337299 0)
(0.00566203 0.000419757 0)
(0.00530531 0.000529747 0)
(0.00489194 0.000674423 0)
(0.00444304 0.000858089 0)
(0.00400816 0.0010735 0)
(0.00368505 0.00128018 0)
(0.00326693 0.00167032 1.4392e-13)
(0 0 0)
(0.000844525 9.53084e-06 0)
(0.00161919 1.84691e-05 0)
(0.00231029 2.68166e-05 0)
(0.00292783 3.48077e-05 0)
(0.00348024 4.26366e-05 0)
(0.00397449 5.04703e-05 0)
(0.00441637 5.84577e-05 0)
(0.00481058 6.67384e-05 0)
(0.00516092 7.54497e-05 0)
(0.00547044 8.47356e-05 0)
(0.00574151 9.47558e-05 0)
(0.00597595 0.000105698 0)
(0.00617512 0.000117794 0)
(0.00633993 0.000131342 0)
(0.00647095 0.000146731 0)
(0.00656842 0.000164491 0)
(0.00663232 0.00018534 0)
(0.00666238 0.000210266 0)
(0.0066582 0.000240631 0)
(0.00661937 0.00027831 0)
(0.00654581 0.000325868 0)
(0.00643819 0.000386769 0)
(0.00629884 0.000465564 0)
(0.00613303 0.000567962 0)
(0.00595089 0.000700454 0)
(0.00576978 0.000868824 0)
(0.00561606 0.00107406 0)
(0.00552263 0.00130274 0)
(0.00551406 0.0015075 0)
(0.00563491 0.0018488 1.30025e-13)
(0 0 0)
(0.000844042 1.26382e-05 0)
(0.00161835 2.44893e-05 0)
(0.00230927 3.55534e-05 0)
(0.00292683 4.61388e-05 0)
(0.0034795 5.65008e-05 0)
(0.0039743 6.68574e-05 0)
(0.00441706 7.74022e-05 0)
(0.00481258 8.83145e-05 0)
(0.00516475 9.97686e-05 0)
(0.00547675 0.000111944 0)
(0.00575115 0.000125036 0)
(0.00598998 0.000139269 0)
(0.00619492 0.000154915 0)
(0.00636733 0.000172313 0)
(0.00650837 0.000191902 0)
(0.0066191 0.000214257 0)
(0.0067006 0.000240142 0)
(0.00675414 0.000270575 0)
(0.00678143 0.000306911 0)
(0.00678494 0.000350939 0)
(0.00676844 0.000404988 0)
(0.00673774 0.000472011 0)
(0.00670169 0.000555596 0)
(0.00667349 0.000659775 0)
(0.0066717 0.000788379 0)
(0.00672012 0.000943466 0)
(0.00684322 0.00112195 0)
(0.00705054 0.00130896 0)
(0.00729831 0.00146608 0)
(0.00779617 0.00169519 1.91274e-13)
(0 0 0)
(0.000843459 1.56851e-05 0)
(0.00161733 3.03904e-05 0)
(0.002308 4.4113e-05 0)
(0.00292558 5.72318e-05 0)
(0.00347855 7.00595e-05 0)
(0.003974 8.28623e-05 0)
(0.00441783 9.5874e-05 0)
(0.00481491 0.000109308 0)
(0.00516928 0.00012337 0)
(0.00548425 0.000138265 0)
(0.00576257 0.00015421 0)
(0.00600658 0.000171451 0)
(0.00621827 0.000190272 0)
(0.00639948 0.000211019 0)
(0.00655197 0.000234124 0)
(0.00667763 0.000260132 0)
(0.00677863 0.00028974 0)
(0.0068577 0.000323832 0)
(0.00691843 0.000363517 0)
(0.00696576 0.000410158 0)
(0.00700653 0.000465361 0)
(0.00705028 0.000530904 0)
(0.00711008 0.000608516 0)
(0.00720325 0.000699444 0)
(0.00735135 0.000803649 0)
(0.00757772 0.000918562 0)
(0.0078993 0.00103744 0)
(0.00830525 0.00114772 0)
(0.00870992 0.00122984 0)
(0.00946815 0.00137421 8.23552e-23)
(0 0 0)
(0.000842758 1.86555e-05 0)
(0.00161608 3.61412e-05 0)
(0.00230645 5.24488e-05 0)
(0.002924 6.8024e-05 0)
(0.00347728 8.32336e-05 0)
(0.00397344 9.83873e-05 0)
(0.00441846 0.000113755 0)
(0.0048173 0.000129578 0)
(0.00517411 0.000146085 0)
(0.00549237 0.000163498 0)
(0.00577504 0.000182045 0)
(0.00602471 0.00020197 0)
(0.00624372 0.000223548 0)
(0.00643433 0.000247097 0)
(0.00659888 0.000272994 0)
(0.00673997 0.00030169 0)
(0.0068607 0.000333724 0)
(0.00696493 0.000369723 0)
(0.00705765 0.000410394 0)
(0.00714541 0.000456471 0)
(0.0072368 0.0005086 0)
(0.00734298 0.000567127 0)
(0.00747808 0.000631716 0)
(0.00765903 0.000700764 0)
(0.00790425 0.000770592 0)
(0.00822974 0.000834624 0)
(0.00863998 0.000883243 0)
(0.00910875 0.00090622 0)
(0.00954018 0.000901778 0)
(0.0103727 0.000831447 1.25849e-13)
(0 0 0)
(0.00084192 2.15343e-05 0)
(0.00161458 4.1712e-05 0)
(0.00230454 6.0517e-05 0)
(0.00292201 7.84576e-05 0)
(0.00347558 9.595e-05 0)
(0.00397247 0.000113343 0)
(0.00441872 0.000130937 0)
(0.0048194 0.000148998 0)
(0.0051788 0.000167768 0)
(0.00550052 0.000187475 0)
(0.00578773 0.000208347 0)
(0.00604325 0.000230613 0)
(0.00626973 0.000254514 0)
(0.00646979 0.000280315 0)
(0.00664622 0.000308302 0)
(0.00680218 0.000338786 0)
(0.00694139 0.000372094 0)
(0.00706843 0.000408538 0)
(0.00718899 0.000448362 0)
(0.00731025 0.000491634 0)
(0.00744107 0.000538072 0)
(0.00759219 0.00058676 0)
(0.00777589 0.00063574 0)
(0.00800502 0.000681466 0)
(0.00829048 0.000718212 0)
(0.0086365 0.000737774 0)
(0.00903227 0.00073035 0)
(0.00943922 0.000688948 0)
(0.00977317 0.000623483 0)
(0.0102582 0.000392397 8.68185e-14)
(0 0 0)
(0.000840917 2.43085e-05 0)
(0.00161276 4.70771e-05 0)
(0.0023022 6.82799e-05 0)
(0.0029195 8.84826e-05 0)
(0.00347329 0.000108147 0)
(0.00397087 0.000127655 0)
(0.00441835 0.000147335 0)
(0.00482089 0.000167467 0)
(0.00518288 0.000188303 0)
(0.00550808 0.000210072 0)
(0.00579982 0.000232985 0)
(0.0060611 0.000257246 0)
(0.00629483 0.000283049 0)
(0.00650389 0.000310585 0)
(0.00669139 0.000340029 0)
(0.00686079 0.000371534 0)
(0.00701614 0.000405197 0)
(0.00716224 0.000441017 0)
(0.00730486 0.000478806 0)
(0.00745084 0.000518071 0)
(0.00760813 0.000557827 0)
(0.00778549 0.000596348 0)
(0.00799166 0.000630864 0)
(0.00823372 0.000657261 0)
(0.00851406 0.000669942 0)
(0.00882573 0.000662238 0)
(0.00914622 0.000628134 0)
(0.00943217 0.000566987 0)
(0.00962347 0.00049487 0)
(0.00971347 0.000326477 6.54403e-14)
(0 0 0)
(0.000839722 2.69667e-05 0)
(0.00161058 5.22148e-05 0)
(0.00229935 7.57058e-05 0)
(0.00291634 9.8058e-05 0)
(0.00347026 0.000119773 0)
(0.00396844 0.000141265 0)
(0.00441708 0.000162879 0)
(0.0048214 0.000184911 0)
(0.0051859 0.000207613 0)
(0.00551445 0.000231205 0)
(0.0058105 0.000255881 0)
(0.00607723 0.000281806 0)
(0.00631768 0.000309121 0)
(0.00653491 0.000337933 0)
(0.00673217 0.000368304 0)
(0.00691303 0.000400229 0)
(0.00708152 0.000433596 0)
(0.00724227 0.000468132 0)
(0.00740053 0.000503318 0)
(0.0075622 0.000538278 0)
(0.00773353 0.000571635 0)
(0.00792056 0.000601366 0)
(0.00812809 0.000624684 0)
(0.00835789 0.000638069 0)
(0.008606 0.000637633 0)
(0.00885941 0.000620134 0)
(0.00909306 0.000585069 0)
(0.00927099 0.000538155 0)
(0.00936103 0.000495274 0)
(0.00931441 0.000455228 6.90314e-14)
(0 0 0)
(0.000838308 2.94995e-05 0)
(0.00160798 5.71066e-05 0)
(0.00229591 8.2768e-05 0)
(0.00291245 0.00010715 0)
(0.00346635 0.000130789 0)
(0.003965 0.000154124 0)
(0.00441465 0.000177519 0)
(0.00482061 0.000201273 0)
(0.00518742 0.00022564 0)
(0.00551906 0.000250826 0)
(0.00581908 0.000276998 0)
(0.00609072 0.000304284 0)
(0.00633714 0.000332764 0)
(0.00656143 0.000362467 0)
(0.00676686 0.000393347 0)
(0.00695688 0.000425263 0)
(0.00713527 0.000457933 0)
(0.00730616 0.000490889 0)
(0.00747396 0.000523399 0)
(0.00764319 0.000554399 0)
(0.00781811 0.000582411 0)
(0.00800208 0.000605514 0)
(0.00819651 0.000621413 0)
(0.00839947 0.000627719 0)
(0.00860407 0.000622606 0)
(0.00879709 0.000605983 0)
(0.00895919 0.000581172 0)
(0.00906925 0.000556279 0)
(0.00911706 0.000542088 0)
(0.00910259 0.00056556 -1.12859e-22)
(0 0 0)
(0.000836647 3.18982e-05 0)
(0.00160491 6.1736e-05 0)
(0.00229179 8.94433e-05 0)
(0.00290769 0.000115728 0)
(0.0034614 0.000141159 0)
(0.00396034 0.000166195 0)
(0.00441082 0.000191212 0)
(0.00481818 0.000216516 0)
(0.00518703 0.00024235 0)
(0.00552141 0.000268908 0)
(0.0058249 0.000296329 0)
(0.00610082 0.000324701 0)
(0.00635229 0.00035405 0)
(0.00658239 0.000384333 0)
(0.00679426 0.000415414 0)
(0.0069911 0.000447046 0)
(0.00717626 0.00047883 0)
(0.00735316 0.00051018 0)
(0.0075252 0.000540275 0)
(0.00769545 0.000568022 0)
(0.00786627 0.000592051 0)
(0.00803871 0.000610768 0)
(0.00821174 0.000622533 0)
(0.00838151 0.000626036 0)
(0.00854082 0.000620934 0)
(0.00867965 0.000608748 0)
(0.00878727 0.000593715 0)
(0.00885684 0.00058257 0)
(0.00889074 0.000580732 0)
(0.00892691 0.000603985 -1.29638e-13)
(0 0 0)
(0.00083471 3.41555e-05 0)
(0.00160131 6.60894e-05 0)
(0.00228691 9.57123e-05 0)
(0.00290196 0.000123769 0)
(0.00345527 0.000150855 0)
(0.00395429 0.000177448 0)
(0.00440535 0.000203931 0)
(0.00481384 0.00023061 0)
(0.00518439 0.000257723 0)
(0.00552107 0.000285445 0)
(0.00582747 0.00031389 0)
(0.0061069 0.000343108 0)
(0.00636244 0.000373077 0)
(0.00659705 0.000403697 0)
(0.00681365 0.000434764 0)
(0.0070151 0.000465961 0)
(0.00720423 0.000496824 0)
(0.0073837 0.000526721 0)
(0.00755586 0.000554837 0)
(0.00772246 0.000580167 0)
(0.00788427 0.000601561 0)
(0.00804062 0.000617822 0)
(0.00818896 0.000627907 0)
(0.00832467 0.000631246 0)
(0.00844144 0.000628169 0)
(0.00853275 0.000620332 0)
(0.00859481 0.000610879 0)
(0.00863029 0.000603783 0)
(0.00864895 0.000601608 0)
(0.00868799 0.000608694 4.08648e-14)
(0 0 0)
(0.000832468 3.62655e-05 0)
(0.00159712 7.01551e-05 0)
(0.0022812 0.000101559 0)
(0.00289515 0.000131254 0)
(0.00344783 0.000159858 0)
(0.00394668 0.000187862 0)
(0.00439805 0.000215656 0)
(0.00480733 0.000243544 0)
(0.00517919 0.000271755 0)
(0.00551767 0.000300449 0)
(0.00582637 0.000329714 0)
(0.00610853 0.000359569 0)
(0.00636713 0.000389955 0)
(0.00660499 0.000420728 0)
(0.00682473 0.000451642 0)
(0.00702886 0.000482342 0)
(0.00721965 0.000512343 0)
(0.00739904 0.000541029 0)
(0.00756846 0.000567653 0)
(0.00772858 0.000591365 0)
(0.007879 0.000611275 0)
(0.00801792 0.000626565 0)
(0.00814202 0.000636652 0)
(0.00824658 0.000641395 0)
(0.0083262 0.000641258 0)
(0.00837651 0.000637334 0)
(0.00839691 0.000631065 0)
(0.00839399 0.000623765 0)
(0.00838312 0.00061684 0)
(0.00839404 0.000602245 2.66878e-13)
(0 0 0)
(0.000829895 3.82232e-05 0)
(0.0015923 7.39243e-05 0)
(0.00227458 0.000106972 0)
(0.00288718 0.000138169 0)
(0.00343896 0.000168153 0)
(0.00393736 0.000197424 0)
(0.00438873 0.000226378 0)
(0.00479846 0.000255314 0)
(0.00517119 0.000284455 0)
(0.00551095 0.000313942 0)
(0.0058213 0.000343846 0)
(0.0061054 0.00037416 0)
(0.00636611 0.000404798 0)
(0.00660603 0.000435587 0)
(0.00682754 0.000466262 0)
(0.00703275 0.000496457 0)
(0.00722343 0.000525705 0)
(0.00740091 0.00055344 0)
(0.0075659 0.000579024 0)
(0.0077183 0.000601783 0)
(0.00785698 0.000621084 0)
(0.0079796 0.000636431 0)
(0.00808266 0.000647587 0)
(0.00816176 0.000654675 0)
(0.00821233 0.000658184 0)
(0.00823095 0.00065877 0)
(0.00821723 0.000656755 0)
(0.00817672 0.000651572 0)
(0.00812617 0.000643083 0)
(0.00803031 0.000612266 3.08223e-13)
(0 0 0)
(0.000826928 4.00409e-05 0)
(0.00158674 7.74214e-05 0)
(0.0022669 0.000111986 0)
(0.00287786 0.000144562 0)
(0.00342845 0.000175799 0)
(0.0039261 0.000206207 0)
(0.00437713 0.000236183 0)
(0.00478691 0.000266025 0)
(0.00516007 0.000295943 0)
(0.0055006 0.000326069 0)
(0.00581197 0.000356455 0)
(0.00609725 0.000387079 0)
(0.00635917 0.000417835 0)
(0.00660014 0.000448538 0)
(0.00682225 0.000478918 0)
(0.00702728 0.000508626 0)
(0.00721659 0.000537231 0)
(0.00739103 0.000564244 0)
(0.0075508 0.000589147 0)
(0.00769536 0.000611442 0)
(0.00782326 0.000630721 0)
(0.00793213 0.000646749 0)
(0.0080188 0.000659549 0)
(0.00807965 0.000669463 0)
(0.00811122 0.000677145 0)
(0.00811118 0.000683455 0)
(0.00807938 0.000689334 0)
(0.00801947 0.000695911 0)
(0.00794348 0.000705993 0)
(0.00769871 0.000675498 1.45264e-23)
(-9.1073e-18 0 1.15805e-23)
(0.00171026 0 0)
(0.00252564 0 0)
(0.00341483 0 0)
(0.00421496 0 0)
(0.00488008 0 0)
(0.0054102 0 0)
(0.0058207 0 0)
(0.00612994 0 0)
(0.0063546 0 0)
(0.00650837 0 0)
(0.00660189 0 0)
(0.00664313 0 0)
(0.00663793 0 0)
(0.00659042 0 0)
(0.00650342 0 0)
(0.00637873 0 0)
(0.00621729 0 0)
(0.00601936 0 0)
(0.00578457 0 0)
(0.00551196 0 0)
(0.00519997 0 0)
(0.0048464 0 0)
(0.00444837 0 0)
(0.00400218 0 0)
(0.00350322 0 0)
(0.00294587 0 0)
(0.00232329 0 0)
(0.00162732 0 0)
(0.000848263 0 0)
(0 0 0)
(0.00116886 -0.000937088 -3.2988e-14)
(0.00226832 -0.00059382 0)
(0.00295955 -0.000460524 0)
(0.00373203 -0.000326355 0)
(0.00444109 -0.000217204 0)
(0.00503961 -0.000135603 0)
(0.00552241 -7.72104e-05 0)
(0.00589972 -3.65372e-05 0)
(0.00618578 -8.77896e-06 0)
(0.00639425 9.78427e-06 0)
(0.00653665 2.18768e-05 0)
(0.00662212 2.94405e-05 0)
(0.00665762 3.38422e-05 0)
(0.00664826 3.60403e-05 0)
(0.00659773 3.6707e-05 0)
(0.0065085 3.63149e-05 0)
(0.00638214 3.51969e-05 0)
(0.00621946 3.35879e-05 0)
(0.00602059 3.16527e-05 0)
(0.00578509 2.95061e-05 0)
(0.00551195 2.7226e-05 0)
(0.00519957 2.48625e-05 0)
(0.00484575 2.2445e-05 0)
(0.00444756 1.99859e-05 0)
(0.00400129 1.74833e-05 0)
(0.00350234 1.49232e-05 0)
(0.00294505 1.22798e-05 0)
(0.00232261 9.51494e-06 0)
(0.00162684 6.5774e-06 0)
(0.000848013 3.40049e-06 0)
(0 0 0)
(0.00318566 -0.00135854 -9.25886e-14)
(0.00369413 -0.000961043 0)
(0.0040994 -0.000756807 0)
(0.00458424 -0.000543075 0)
(0.00505872 -0.000363635 0)
(0.00548084 -0.000226265 0)
(0.00583593 -0.000126134 0)
(0.00612246 -5.53584e-05 0)
(0.00634445 -6.49847e-06 0)
(0.00650775 2.64484e-05 0)
(0.0066182 4.80085e-05 0)
(0.00668094 6.14843e-05 0)
(0.00670014 6.92465e-05 0)
(0.006679 7.29859e-05 0)
(0.00661987 7.39057e-05 0)
(0.00652432 7.28628e-05 0)
(0.00639328 7.04674e-05 0)
(0.00622709 6.71534e-05 0)
(0.00602559 6.32283e-05 0)
(0.00578813 5.89065e-05 0)
(0.00551354 5.43343e-05 0)
(0.0052001 4.96061e-05 0)
(0.00484552 4.47765e-05 0)
(0.00444682 3.98675e-05 0)
(0.00400026 3.48741e-05 0)
(0.0035012 2.97673e-05 0)
(0.00294395 2.44947e-05 0)
(0.00232168 1.898e-05 0)
(0.00162617 1.31207e-05 0)
(0.000847684 6.78367e-06 0)
(0 0 0)
(0.00554112 -0.00136734 -1.4971e-13)
(0.00550364 -0.00101752 0)
(0.00559334 -0.000813983 0)
(0.00573628 -0.000591534 0)
(0.0059159 -0.000397113 0)
(0.00610706 -0.000243089 0)
(0.00628958 -0.00012752 0)
(0.00645022 -4.3846e-05 0)
(0.00658142 1.50226e-05 0)
(0.0066795 5.52498e-05 0)
(0.00674309 8.17403e-05 0)
(0.00677203 9.82305e-05 0)
(0.00676673 0.000107502 0)
(0.00672773 0.000111601 0)
(0.00665547 0.000112023 0)
(0.00655021 0.000109855 0)
(0.00641194 0.000105887 0)
(0.00624035 0.00010069 0)
(0.00603481 9.46715e-05 0)
(0.00579431 8.81199e-05 0)
(0.00551745 8.12323e-05 0)
(0.00520235 7.41359e-05 0)
(0.00484657 6.6903e-05 0)
(0.00444703 5.95606e-05 0)
(0.00399993 5.20976e-05 0)
(0.00350056 4.44679e-05 0)
(0.0029432 3.65917e-05 0)
(0.00232097 2.83543e-05 0)
(0.00162564 1.96018e-05 0)
(0.0008474 1.0135e-05 0)
(0 0 0)
(0.00770404 -0.00102628 -2.8091e-13)
(0.00726914 -0.000801162 0)
(0.00708834 -0.000647824 0)
(0.00692708 -0.00047344 0)
(0.00683166 -0.000313282 0)
(0.00679717 -0.000180082 0)
(0.00680377 -7.57046e-05 0)
(0.0068311 2.64741e-06 0)
(0.00686287 5.93201e-05 0)
(0.0068874 9.87471e-05 0)
(0.00689674 0.000124852 0)
(0.00688568 0.000140873 0)
(0.00685081 0.000149378 0)
(0.00678987 0.000152356 0)
(0.00670126 0.000151322 0)