/*--------------------------------*- C++ -*----------------------------------*\
| =========                 |                                                 |
| \\      /  F ield         | OpenFOAM: The Open Source CFD Toolbox           |
|  \\    /   O peration     | Version:  5.x                                   |
|   \\  /    A nd           | Web:      www.OpenFOAM.org                      |
|    \\/     M anipulation  |                                                 |
\*---------------------------------------------------------------------------*/
FoamFile
{
    version     2.0;
    format      ascii;
    class       volVectorField;
    location    "0.1";
    object      U;
}
// * * * * * * * * * * * * * * * * * * * * * * * * * * * * * * * * * * * * * //

dimensions      [0 1 -1 0 0 0 0];

internalField   nonuniform List<vector> 
2790
(
(9.93972 0.019902 0)
(9.8773 0.0282614 -2.49378e-22)
(9.78353 0.0338731 2.54028e-22)
(9.66408 0.0394265 0)
(9.52616 0.0448668 -2.68267e-21)
(9.37214 0.0500297 5.50366e-22)
(9.20246 0.0549807 0)
(9.01758 0.0598742 0)
(8.81811 0.0648873 0)
(8.60443 0.0702094 -2.57938e-21)
(8.3764 0.0760334 -2.3563e-21)
(8.13344 0.0825438 3.65488e-22)
(7.87452 0.089906 2.23589e-21)
(7.59833 0.0982608 4.15597e-23)
(7.30337 0.107722 3.34119e-21)
(6.98803 0.118376 9.79248e-23)
(6.65075 0.130275 -7.33425e-21)
(6.29013 0.143439 0)
(5.90504 0.157847 0)
(5.49478 0.173428 0)
(5.05918 0.190062 0)
(4.59873 0.207575 4.15289e-20)
(4.11468 0.225749 9.05433e-20)
(3.60912 0.244338 -9.58296e-20)
(3.08486 0.263115 -2.1155e-19)
(2.54541 0.281913 2.26144e-19)
(1.98771 0.301641 0)
(1.54091 0.309868 5.44403e-19)
(0.532041 0.350033 -5.90368e-19)
(0.871094 0.376235 3.29455e-18)
(9.99428 0.0390995 0)
(9.98227 0.0594611 3.95641e-21)
(9.94067 0.0753412 5.04725e-22)
(9.86982 0.0921431 4.11489e-21)
(9.77453 0.109693 1.05545e-21)
(9.65658 0.127344 5.40113e-22)
(9.51635 0.144925 4.76304e-21)
(9.35447 0.16253 -3.24754e-22)
(9.17203 0.180381 3.73737e-23)
(8.97004 0.198812 7.52868e-21)
(8.74912 0.218242 -2.69169e-23)
(8.50942 0.239122 1.0922e-23)
(8.25059 0.26189 -5.72496e-21)
(7.97186 0.286932 9.15336e-21)
(7.67215 0.314553 2.36432e-22)
(7.35014 0.344961 -2.00076e-20)
(7.00443 0.378247 1.46708e-20)
(6.63368 0.414367 -4.54577e-20)
(6.23668 0.453119 3.17939e-20)
(5.81259 0.494125 -3.42653e-20)
(5.36103 0.536821 -3.66316e-20)
(4.88223 0.580452 -1.20107e-19)
(4.37719 0.624099 1.6727e-19)
(3.84774 0.666745 0)
(3.29661 0.707378 -1.96458e-19)
(2.72768 0.745123 0)
(2.13305 0.780784 9.32053e-19)
(1.65521 0.798635 1.02364e-18)
(0.615752 0.850979 -2.19366e-18)
(0.890155 0.869913 -6.08366e-19)
(9.99138 0.0408058 0)
(9.97642 0.0714141 -3.95158e-21)
(9.93672 0.0992924 -7.7612e-21)
(9.87024 0.129069 -4.60821e-21)
(9.78015 0.160631 8.63566e-21)
(9.66796 0.192956 0)
(9.53395 0.225474 -1.07065e-23)
(9.37856 0.258052 0)
(9.2027 0.290869 -9.50889e-21)
(9.00728 0.324372 -7.45777e-21)
(8.79291 0.359211 1.28551e-20)
(8.55975 0.39614 -5.35938e-21)
(8.30748 0.435931 -1.14214e-20)
(8.0354 0.479295 2.36963e-20)
(7.74241 0.526828 -1.23038e-20)
(7.42717 0.578973 2.62254e-20)
(7.08821 0.635983 4.14997e-20)
(6.72399 0.697885 1.55018e-20)
(6.33308 0.764443 -6.13916e-20)
(5.91428 0.835116 3.3116e-20)
(5.46677 0.909026 -3.48514e-20)
(4.99027 0.984938 -7.5334e-20)
(4.4852 1.06127 3.2526e-19)
(3.95285 1.13617 -3.4176e-19)
(3.39547 1.20761 1.8621e-19)
(2.81732 1.27351 0)
(2.20472 1.33431 0)
(1.7173 1.37112 0)
(0.674909 1.43856 0)
(0.897646 1.45776 5.59965e-19)
(9.98981 0.0462478 7.76492e-21)
(9.97266 0.088175 0)
(9.93283 0.128691 1.54664e-20)
(9.86769 0.171079 -3.49197e-24)
(9.77953 0.215586 -7.81849e-21)
(9.66973 0.261254 -8.53016e-21)
(9.53867 0.307321 -1.31854e-20)
(9.38681 0.353534 -9.06451e-21)
(9.215 0.400088 9.4204e-21)
(9.0241 0.447564 -9.73845e-21)
(8.81468 0.496834 -1.51757e-20)
(8.58688 0.548935 -1.05441e-20)
(8.3404 0.604945 5.47469e-21)
(8.07449 0.665882 1.15486e-20)
(7.78807 0.732629 0)
(7.47975 0.805874 -3.86944e-20)
(7.14796 0.886066 2.63778e-20)
(6.79102 0.973359 2.84782e-20)
(6.40727 1.06756 2.98596e-20)
(5.99516 1.16805 0)
(5.55345 1.27376 6.76948e-20)
(5.0813 1.38309 0)
(4.57851 1.49388 -3.09177e-19)
(4.04575 1.60346 1.60982e-19)
(3.48463 1.70875 0)
(2.90004 1.80621 -1.70434e-18)
(2.27244 1.89554 1.81233e-19)
(1.77679 1.95556 1.53251e-18)
(0.737153 2.03592 0)
(0.90376 2.05233 3.64097e-18)
(9.98907 0.0531135 -2.32257e-20)
(9.97076 0.104777 0)
(9.93086 0.156503 -7.95415e-21)
(9.86699 0.210647 7.56284e-21)
(9.78088 0.267561 8.75868e-21)
(9.6737 0.326263 8.482e-21)
(9.54585 0.385742 1.74043e-20)
(9.39782 0.445535 7.86136e-21)
(9.23042 0.505789 1.15057e-21)
(9.04448 0.567177 5.24122e-23)
(8.84056 0.630766 -4.98491e-21)
(8.61879 0.697865 1.55682e-20)
(8.37886 0.769856 -2.15911e-20)
(8.12003 0.848075 1.11874e-20)
(7.84118 0.933708 0)
(7.54089 1.02772 2.47153e-20)
(7.21746 1.1308 -2.61891e-20)
(6.86905 1.24328 5.55532e-20)
(6.49373 1.36509 -8.60996e-20)
(6.08958 1.49564 0)
(5.65486 1.63375 0)
(5.18811 1.77754 2.08447e-19)
(4.68839 1.92433 -5.79789e-19)
(4.15557 2.07063 4.6054e-19)
(3.59046 2.21217 0)
(2.99859 2.34362 1.77271e-19)
(2.35474 2.46318 -3.78314e-19)
(1.84472 2.54791 4.09133e-19)
(0.806427 2.63892 0)
(0.905837 2.6452 -2.39269e-19)
(9.98876 0.0606042 1.54555e-20)
(9.96999 0.121376 1.6035e-20)
(9.93044 0.183763 -9.87509e-22)
(9.86808 0.249456 -7.03893e-21)
(9.78438 0.31858 -1.74031e-20)
(9.68028 0.390008 8.88266e-21)
(9.5562 0.462498 -8.35442e-21)
(9.41263 0.535413 8.40979e-22)
(9.25039 0.608869 7.97755e-21)
(9.07028 0.683645 1.42591e-20)
(8.87286 0.761018 -9.60243e-21)
(8.65826 0.842569 -2.53257e-20)
(8.42617 0.929992 4.23746e-20)
(8.17586 1.02494 -4.45288e-20)
(7.90619 1.12893 -1.27082e-22)
(7.61566 1.24323 2.45663e-20)
(7.30249 1.3688 -7.49193e-20)
(6.96463 1.50624 -2.62529e-20)
(6.59986 1.65567 0)
(6.20584 1.81665 0)
(5.78021 1.988 -6.08994e-20)
(5.32077 2.16771 6.52299e-20)
(4.82563 2.3527 2.76723e-19)
(4.29361 2.53868 -2.87181e-19)
(3.72427 2.72012 0)
(3.12346 2.88965 -6.62011e-19)
(2.46061 3.04307 8.32199e-19)
(1.9271 3.15606 -1.67532e-19)
(0.885328 3.25926 -6.32456e-21)
(0.904696 3.25134 2.24532e-19)
(9.98869 0.0683248 -2.39748e-22)
(9.96997 0.137858 -1.52836e-20)
(9.93117 0.210367 9.82606e-22)
(9.87063 0.287154 -9.93025e-22)
(9.78969 0.368035 8.13518e-21)
(9.68918 0.451692 -7.794e-21)
(9.56946 0.536679 -6.61975e-22)
(9.43105 0.622205 1.35608e-22)
(9.27477 0.708352 8.90227e-21)
(9.10143 0.795993 4.68913e-21)
(8.91158 0.886605 1.45432e-20)
(8.70536 0.982031 3.98608e-20)
(8.48249 1.08427 1.02493e-20)
(8.24225 1.19532 -1.0282e-20)
(7.9835 1.31701 2.30145e-20)
(7.70471 1.45096 -4.62565e-20)
(7.40398 1.59847 2.4505e-20)
(7.0791 1.76046 -5.10704e-20)
(6.72754 1.93737 -5.50327e-20)
(6.34648 2.12903 1.10031e-19)
(5.93291 2.33447 5.88182e-20)
(5.4837 2.55174 6.05728e-20)
(4.9958 2.77756 -2.60218e-19)
(4.46657 3.00706 2.68874e-19)
(3.89375 3.23352 3.54546e-20)
(3.28272 3.44747 0)
(2.59789 3.64167 3.67937e-19)
(2.03009 3.79033 -3.69066e-19)
(0.974624 3.91234 5.92827e-21)
(0.899289 3.89318 1.0274e-19)
(9.98876 0.076043 4.76787e-22)
(9.97046 0.154036 -1.44411e-21)
(9.9328 0.236156 9.71879e-22)
(9.87439 0.323528 -1.57459e-20)
(9.7966 0.415675 0)
(9.70014 0.511048 0)
(9.58536 0.607992 -1.31961e-22)
(9.4528 0.705567 1.33677e-22)
(9.30328 0.803818 -2.00076e-20)
(9.13762 0.903706 2.26399e-21)
(8.95637 1.00689 0)
(8.75973 1.11549 -9.74892e-21)
(8.54744 1.23179 -3.02957e-20)
(8.31882 1.35812 2.66194e-22)
(8.07276 1.49667 2.15608e-20)
(7.80773 1.64943 4.51025e-20)
(7.52179 1.81808 0)
(7.21256 2.00396 4.87703e-20)
(6.87723 2.20794 -1.02748e-19)
(6.51254 2.4303 1.04734e-19)
(6.11478 2.6705 -1.11607e-19)
(5.67978 2.92694 8.43009e-20)
(5.20307 3.1965 0)
(4.68018 3.47411 -9.64226e-20)
(4.10627 3.75226 9.81437e-20)
(3.48513 4.01961 0)
(2.7763 4.26547 3.66299e-20)
(2.16382 4.46225 0)
(1.08301 4.61594 8.43341e-20)
(0.895524 4.60283 -7.52493e-19)
(9.98894 0.0836097 0)
(9.97131 0.169742 0)
(9.93511 0.260981 -1.53936e-20)
(9.87917 0.358403 1.47147e-20)
(9.80489 0.461276 1.68387e-20)
(9.71295 0.567797 -1.61445e-20)
(9.60367 0.676095 1.6489e-20)
(9.4776 0.785085 0)
(9.33559 0.894772 1.0962e-21)
(9.17846 1.0062 -1.111e-21)
(9.00681 1.1212 0)
(8.82087 1.24214 0)
(8.62045 1.3716 9.92676e-21)
(8.40496 1.51224 1.0398e-20)
(8.17335 1.66661 -2.11933e-20)
(7.92413 1.83709 4.8307e-23)
(7.65537 2.0258 4.55805e-20)
(7.3646 2.23456 -2.26349e-20)
(7.04884 2.46482 -9.68834e-20)
(6.70442 2.71748 4.97169e-20)
(6.32696 2.99272 0)
(5.91125 3.28964 8.17815e-20)
(5.45125 3.60583 -1.11405e-19)
(4.94025 3.93665 -2.97029e-20)
(4.37013 4.27448 4.68678e-22)
(3.74156 4.60688 -3.22757e-20)
(3.00906 4.91973 -6.79414e-20)
(2.34353 5.18287 3.585e-20)
(1.22657 5.38705 -7.86283e-20)
(0.904706 5.40179 -8.32971e-20)
(9.98918 0.0909216 0)
(9.97244 0.184833 1.51196e-20)
(9.93799 0.284697 1.53606e-20)
(9.88483 0.391609 0)
(9.81441 0.504618 -2.08995e-21)
(9.7274 0.621665 3.39935e-20)
(9.62413 0.740657 -1.74154e-20)
(9.50516 0.860364 1.03722e-21)
(9.37134 0.98075 -1.70109e-20)
(9.22355 1.10293 -2.21107e-21)
(9.0624 1.22889 2.2394e-21)
(8.88821 1.36122 0)
(8.70089 1.50281 0)
(8.49994 1.65661 0)
(8.28445 1.82554 -2.05392e-20)
(8.05304 2.01238 -3.87439e-22)
(7.80385 2.21973 2.87582e-23)
(7.53446 2.44996 -4.51562e-20)
(7.24179 2.70518 4.56531e-20)
(6.92194 2.98714 -4.79348e-20)
(6.57001 3.29699 7.38659e-20)
(6.17986 3.63505 -7.62095e-20)
(5.74386 4.00022 5.17217e-20)
(5.25287 4.38922 6.59062e-21)
(4.69481 4.79554 -2.19842e-21)
(4.0655 5.20699 1.59408e-20)
(3.31359 5.60683 4.57784e-20)
(2.58917 5.96174 0)
(1.4225 6.24341 0)
(0.936908 6.30546 2.10345e-19)
(9.98948 0.0979032 0)
(9.97378 0.199191 -1.60416e-20)
(9.94133 0.30717 1.41649e-20)
(9.89122 0.422984 -1.52919e-20)
(9.82498 0.545499 1.81345e-21)
(9.7433 0.672402 -1.38774e-20)
(9.6465 0.801379 -2.00145e-21)
(9.53516 0.931052 0)
(9.41017 1.06134 3.34391e-20)
(9.27241 1.1934 1.21603e-21)
(9.1226 1.32938 -3.31688e-21)
(8.96111 1.47206 -2.31611e-21)
(8.78799 1.6246 -1.38414e-20)
(8.6029 1.79024 0)
(8.40508 1.97226 -9.91411e-21)
(8.19336 2.17381 3.00085e-20)
(7.96606 2.39799 4.19238e-20)
(7.72092 2.64777 -2.12282e-20)
(7.45497 2.92601 3.4589e-22)
(7.16429 3.23543 -2.27761e-20)
(6.84372 3.57849 2.35825e-20)
(6.48652 3.95712 -2.76745e-22)
(6.08374 4.37235 -2.38978e-20)
(5.62391 4.82346 -9.284e-21)
(5.09075 5.30675 3.06163e-21)
(4.47345 5.81273 -1.33033e-20)
(3.71304 6.32457 -1.37849e-20)
(2.92913 6.80701 -6.7329e-21)
(1.69524 7.20979 -1.77615e-21)
(1.00604 7.35128 1.69116e-20)
(9.98982 0.104497 -2.9567e-20)
(9.9753 0.212719 0)
(9.94504 0.328279 1.67375e-20)
(9.89823 0.452385 1.33458e-20)
(9.83646 0.58374 -2.05993e-21)
(9.76044 0.719789 1.94116e-21)
(9.67052 0.857995 0)
(9.56729 0.996832 1.80797e-20)
(9.45166 1.13616 -1.75813e-20)
(9.32458 1.27717 -1.17885e-21)
(9.18681 1.42214 1.21834e-21)
(9.03886 1.57404 -1.09603e-21)
(8.88091 1.73622 3.61635e-20)
(8.71282 1.91223 0)
(8.53406 2.10563 0)
(8.34374 2.31996 -4.45052e-22)
(8.14046 2.55878 1.00095e-20)
(7.92231 2.82564 -1.0515e-20)
(7.68662 3.12421 2.05866e-20)
(7.42976 3.45826 -2.14602e-20)
(7.14677 3.83174 2.1861e-20)
(6.83079 4.24864 -1.06447e-20)
(6.47229 4.71281 5.37354e-21)
(6.05814 5.22742 5.56799e-21)
(5.56843 5.79392 -2.90171e-21)
(4.98478 6.4093 0)
(4.23871 7.06232 5.50087e-21)
(3.40775 7.72236 6.20511e-21)
(2.09112 8.32123 -1.97931e-19)
(1.14193 8.61712 2.22634e-19)
(9.9902 0.110657 2.95514e-20)
(9.97694 0.225335 0)
(9.94904 0.34792 -2.98887e-20)
(9.90575 0.479683 0)
(9.8487 0.619182 -1.39734e-22)
(9.77864 0.763632 -1.52921e-20)
(9.69593 0.910274 1.55141e-20)
(9.60121 1.05743 -1.59526e-20)
(9.4954 1.20489 0)
(9.37951 1.35388 1.63674e-20)
(9.25439 1.50675 -1.61708e-20)
(9.12066 1.66662 1.65126e-20)
(8.9787 1.83704 -3.21371e-22)
(8.82857 2.02178 2.22701e-20)
(8.67005 2.22466 -4.55034e-21)
(8.50257 2.44956 -1.88994e-20)
(8.32518 2.70043 0)
(8.13644 2.98136 -9.90283e-21)
(7.93425 3.29677 -9.75616e-21)
(7.71564 3.65149 0)
(7.47637 4.05096 7.28011e-21)
(7.21028 4.50144 1.28034e-20)
(6.90838 5.01014 -2.81586e-22)
(6.55749 5.58526 -2.58727e-21)
(6.13614 6.23581 -7.45747e-23)
(5.61985 6.97028 0)
(4.93123 7.79286 -5.10746e-21)
(4.0953 8.69498 0)
(2.70195 9.61731 0)
(1.41432 10.2512 -2.3622e-20)
(9.9906 0.116351 0)
(9.9787 0.236976 2.91753e-20)
(9.95329 0.366008 -2.93315e-20)
(9.91369 0.504774 -2.58271e-20)
(9.86155 0.651699 -3.8836e-21)
(9.79768 0.803778 1.52304e-20)
(9.72248 0.958037 -1.54385e-20)
(9.63658 1.11264 1.54884e-20)
(9.54097 1.2673 -3.98048e-21)
(9.43669 1.42323 -1.22305e-20)
(9.32468 1.58286 -1.80155e-21)
(9.20571 1.74941 -3.13915e-20)
(9.08034 1.92658 -3.41004e-20)
(8.94892 2.11831 -1.7545e-20)
(8.81153 2.32861 1.74477e-20)
(8.66803 2.56162 0)
(8.51798 2.8216 0)
(8.36059 3.11307 1.80838e-20)
(8.19457 3.44105 1.81964e-20)
(8.018 3.81127 1.82359e-20)
(7.82793 4.23051 -9.52525e-21)
(7.61989 4.70712 0)
(7.38697 5.25161 3.16248e-20)
(7.11851 5.87763 -3.61108e-20)
(6.79567 6.60327 7.09194e-23)
(6.39406 7.45295 -6.47355e-20)
(5.83633 8.45859 6.41963e-20)
(5.09844 9.66531 5.50379e-20)
(3.71378 11.1084 -5.5446e-20)
(1.9932 12.5793 1.55877e-20)
(9.99102 0.12155 0)
(9.98053 0.24759 -3.09618e-20)
(9.95772 0.382467 2.74587e-20)
(9.92194 0.527556 6.23397e-20)
(9.87489 0.681157 -4.79966e-20)
(9.8174 0.840055 7.46983e-21)
(9.7499 1.00107 2.49348e-23)
(9.67307 1.1622 -3.44294e-20)
(9.58792 1.32307 1.54236e-20)
(9.49554 1.48488 -3.9615e-21)
(9.39697 1.65007 1.61315e-20)
(9.29313 1.82195 2.04986e-20)
(9.18478 2.0043 1.87961e-20)
(9.07255 2.20117 -2.0911e-21)
(8.95688 2.41671 -1.93702e-20)
(8.83809 2.6552 4.30441e-21)
(8.71634 2.92108 -2.16581e-21)
(8.5916 3.21916 -2.21532e-20)
(8.4636 3.55482 -3.06553e-20)
(8.33175 3.93437 -2.65609e-20)
(8.19496 4.36549 2.36277e-22)
(8.05135 4.85801 -8.26998e-21)
(7.89778 5.42491 0)
(7.72913 6.08414 3.81829e-21)
(7.53531 6.86165 0)
(7.30407 7.79752 -5.36817e-20)
(6.98418 8.95626 5.0847e-20)
(6.55823 10.4643 0)
(5.55109 12.6078 1.79788e-20)
(3.36081 16.4658 -1.77438e-20)
(0.637067 0.218612 -2.36519e-18)
(-1.38252 0.209544 2.73668e-19)
(-0.856224 0.210869 -5.10403e-19)
(-1.76376 0.187281 -2.38549e-19)
(-2.07391 0.158937 0)
(-2.4061 0.110716 0)
(-2.62722 0.0535205 4.9524e-20)
(-2.70686 -0.0102396 4.6194e-20)
(-2.62944 -0.079622 0)
(-2.38755 -0.147241 1.96473e-20)
(-1.9942 -0.206971 0)
(-1.45172 -0.253773 0)
(-0.804712 -0.283462 0)
(-0.0785498 -0.297554 0)
(0.676882 -0.29785 1.95007e-21)
(1.4503 -0.287753 -1.80072e-21)
(2.2121 -0.270563 -6.05159e-22)
(2.94343 -0.248937 0)
(3.63165 -0.224992 0)
(4.26877 -0.200354 0)
(4.85061 -0.176205 -3.61755e-22)
(5.37594 -0.153341 -2.90481e-23)
(5.84567 -0.132239 2.42496e-22)
(6.26215 -0.113135 -2.03439e-23)
(6.62865 -0.0960873 0)
(6.94887 -0.0810296 -6.10509e-23)
(7.22664 -0.0678218 -2.5737e-24)
(7.46569 -0.056294 -2.85439e-23)
(7.66962 -0.0463106 0)
(7.87813 -0.0385693 -5.29849e-24)
(0.682074 0.687203 2.25556e-18)
(-1.38532 0.703518 -1.8304e-18)
(-0.917556 0.658165 -4.90361e-19)
(-1.8495 0.606894 2.27455e-19)
(-2.18689 0.516942 4.26294e-19)
(-2.54367 0.380296 -8.17756e-19)
(-2.77607 0.212265 1.58867e-19)
(-2.86006 0.0223031 3.17473e-19)
(-2.7735 -0.180197 -1.30066e-19)
(-2.51094 -0.374354 -1.87896e-20)
(-2.08339 -0.545253 -6.43938e-20)
(-1.50304 -0.67661 6.59121e-20)
(-0.815002 -0.762813 0)
(-0.0525457 -0.806761 -6.67271e-22)
(0.734475 -0.813865 0)
(1.53596 -0.792366 0)
(2.3224 -0.750979 2.62749e-21)
(3.07583 -0.696734 -1.93732e-21)
(3.78432 -0.635254 0)
(4.4404 -0.570914 -9.47324e-22)
(5.0403 -0.506945 3.47616e-22)
(5.58303 -0.445576 0)
(6.06965 -0.388212 1.90581e-22)
(6.50256 -0.335618 0)
(6.88499 -0.288079 -2.07561e-23)
(7.22057 -0.245543 8.65861e-23)
(7.51304 -0.207739 -8.69586e-23)
(7.76601 -0.17429 -2.28323e-23)
(7.98262 -0.144858 -2.01122e-24)
(8.20256 -0.120039 -5.20726e-24)
(0.60362 1.17931 5.42114e-19)
(-1.39617 1.22813 -2.48001e-19)
(-1.05288 1.14353 4.60638e-19)
(-2.00871 1.05589 -8.66072e-19)
(-2.40405 0.890415 6.24366e-19)
(-2.80502 0.653478 0)
(-3.06325 0.359655 9.77783e-20)
(-3.15738 0.0273113 0)
(-3.05624 -0.32598 1.14307e-19)
(-2.76049 -0.662207 2.2547e-20)
(-2.27692 -0.955329 -1.3737e-19)
(-1.64644 -1.17437 7.35402e-21)
(-0.905948 -1.31605 0)
(-0.0948634 -1.38443 6.25996e-22)
(0.72554 -1.39064 0)
(1.55241 -1.35004 -5.24156e-21)
(2.35588 -1.27696 4.92556e-21)
(3.11977 -1.18303 -3.11839e-21)
(3.83368 -1.07758 1.94678e-21)
(4.49147 -0.967855 3.89073e-22)
(5.09048 -0.859153 0)
(5.63064 -0.755121 0)
(6.11371 -0.658035 -7.46058e-22)
(6.54262 -0.569111 2.76033e-22)
(6.92098 -0.488778 -1.94006e-22)
(7.25267 -0.416912 0)
(7.54155 -0.35303 2.6478e-22)
(7.7913 -0.296451 4.61216e-23)
(8.00493 -0.246431 -1.93152e-24)
(8.22237 -0.20266 1.02258e-23)
(0.482608 1.76015 5.61524e-18)
(-1.4163 1.81858 -1.62884e-18)
(-1.2811 1.70246 1.7516e-18)
(-2.25876 1.56879 -1.6587e-18)
(-2.74291 1.31898 -5.91399e-19)
(-3.20142 0.967671 1.54126e-18)
(-3.49048 0.529359 -7.68615e-19)
(-3.58297 0.0294634 -8.96008e-20)
(-3.44775 -0.49666 -3.98307e-20)
(-3.08552 -0.994161 -3.42949e-20)
(-2.51994 -1.41439 0)
(-1.81214 -1.71966 -6.82664e-21)
(-0.997826 -1.91056 0)
(-0.124345 -1.99255 0)
(0.738344 -1.98644 1.84263e-21)
(1.59615 -1.91799 5.00019e-21)
(2.41943 -1.80655 -9.59428e-22)
(3.19444 -1.66808 -5.95267e-22)
(3.91292 -1.51537 -1.60489e-22)
(4.57056 -1.35823 0)
(5.1662 -1.20376 1.4686e-22)
(5.70098 -1.05678 -1.4253e-22)
(6.17761 -0.920203 -3.70736e-22)
(6.5997 -0.795509 -2.65565e-22)
(6.97132 -0.683125 1.90608e-22)
(7.29668 -0.582748 0)
(7.5798 -0.493602 -1.72435e-22)
(7.82445 -0.414647 0)
(8.03355 -0.344708 0)
(8.24673 -0.282877 0)
(0.335945 2.45658 -1.93301e-18)
(-1.46914 2.5005 1.75159e-18)
(-1.58994 2.3593 0)
(-2.60337 2.16319 7.83855e-19)
(-3.1953 1.81091 -8.61103e-19)
(-3.713 1.3183 0)
(-4.02121 0.704269 -9.20038e-20)
(-4.08525 0.00117155 8.46891e-20)
(-3.87875 -0.728104 3.73061e-20)
(-3.41484 -1.40204 -1.10039e-19)
(-2.7486 -1.94751 1.26386e-19)
(-1.94133 -2.33316 0)
(-1.04212 -2.56129 -4.24969e-20)
(-0.105312 -2.64223 4.03033e-20)
(0.801049 -2.61093 -1.43766e-20)
(1.68836 -2.50486 4.42878e-21)
(2.52883 -2.34768 4.85668e-22)
(3.31152 -2.15921 0)
(4.03069 -1.95536 -1.14359e-21)
(4.68413 -1.7482 0)
(5.27241 -1.54635 0)
(5.79805 -1.35553 -9.74742e-22)
(6.26475 -1.17908 7.16553e-22)
(6.67688 -1.01857 0)
(7.03899 -0.874314 -3.85571e-22)
(7.35558 -0.745717 0)
(7.63087 -0.631653 0)
(7.86865 -0.530676 1.02016e-22)
(8.07182 -0.441175 0)
(8.2793 -0.361736 -3.58398e-23)
(0.158173 3.28574 -2.96959e-18)
(-1.56236 3.30578 8.24593e-19)
(-1.95883 3.13235 0)
(-3.01987 2.85025 0)
(-3.71387 2.36744 -6.41531e-19)
(-4.27338 1.6957 7.90542e-19)
(-4.57041 0.858582 0)
(-4.56651 -0.0888477 0)
(-4.2479 -1.05025 -1.24042e-19)
(-3.65876 -1.90454 1.05597e-19)
(-2.87418 -2.56954 -1.08697e-19)
(-1.96418 -3.02056 6.28319e-20)
(-0.98267 -3.26728 4.83344e-20)
(0.00299856 -3.32933 -1.5978e-20)
(0.945633 -3.25963 2.69818e-20)
(1.85306 -3.10567 -8.89859e-21)
(2.70178 -2.89503 3.40549e-21)
(3.4838 -2.651 -5.95298e-21)
(4.19596 -2.39221 2.53687e-21)
(4.83828 -2.13268 3.73124e-22)
(5.4131 -1.88218 9.1105e-22)
(5.9243 -1.64704 9.47978e-22)
(6.37656 -1.43078 7.16734e-22)
(6.77488 -1.23488 0)
(7.12426 -1.05937 3.78791e-22)
(7.42941 -0.903276 0)
(7.69463 -0.765041 8.81419e-24)
(7.92372 -0.642771 -1.09596e-22)
(8.11949 -0.534403 8.12754e-23)
(8.31978 -0.438045 3.55754e-23)
(-0.0403136 4.24972 6.52648e-19)
(-1.68962 4.24019 0)
(-2.33792 4.0177 3.74405e-19)
(-3.44085 3.62336 -3.58419e-19)
(-4.20662 2.97085 2.35072e-20)
(-4.77315 2.0694 -4.49401e-20)
(-5.01735 0.958585 0)
(-4.89698 -0.276531 1.74458e-19)
(-4.43875 -1.48478 -3.66414e-20)
(-3.71474 -2.51252 -1.24232e-19)
(-2.81271 -3.28109 -1.86468e-21)
(-1.81394 -3.77538 0)
(-0.767329 -4.01702 -3.91964e-20)
(0.240306 -4.04175 2.87007e-20)
(1.20277 -3.92264 6.50253e-21)
(2.11354 -3.71182 -8.76829e-21)
(2.95558 -3.44106 1.5881e-20)
(3.72377 -3.13692 0)
(4.4175 -2.82045 0)
(5.03895 -2.50713 1.64885e-21)
(5.59215 -2.20759 -2.48541e-21)
(6.08213 -1.92839 0)
(6.51439 -1.67303 -2.12028e-21)
(6.89441 -1.44268 2.85258e-23)
(7.2274 -1.23695 -8.00209e-22)
(7.51815 -1.05441 0)
(7.77093 -0.892998 0)
(7.98943 -0.750358 0)
(8.1763 -0.623971 5.43768e-24)
(8.36794 -0.511471 0)
(-0.229885 5.32538 -1.00701e-18)
(-1.80626 5.28191 1.18542e-20)
(-2.64056 4.9868 7.9868e-20)
(-3.75975 4.44836 -8.80209e-20)
(-4.55103 3.58339 1.60908e-19)
(-5.08118 2.40254 -1.42945e-19)
(-5.22693 0.970095 2.06878e-19)
(-4.94864 -0.586801 -1.727e-20)
(-4.34271 -2.03974 -1.582e-19)
(-3.49039 -3.22228 1.01657e-21)
(-2.49408 -4.06742 -5.26458e-20)
(-1.43623 -4.57835 8.9379e-20)
(-0.359643 -4.7889 -3.54383e-20)
(0.640046 -4.7612 2.24931e-20)
(1.59726 -4.5847 -3.09226e-20)
(2.48882 -4.31026 1.06106e-20)
(3.30433 -3.97458 6.84332e-23)
(4.04155 -3.60755 2.76624e-21)
(4.70233 -3.23222 0)
(5.29083 -2.86517 -1.94499e-21)
(5.8125 -2.5174 1.42637e-21)
(6.27329 -2.19548 1.30103e-22)
(6.67917 -1.90257 -2.01171e-23)
(7.03581 -1.6394 0)
(7.34842 -1.40503 1.57526e-21)
(7.62162 -1.19751 -1.21863e-23)
(7.85948 -1.01427 -1.0044e-23)
(8.06545 -0.852458 -8.48953e-24)
(8.24191 -0.709115 -3.35151e-24)
(8.42346 -0.581417 0)
(-0.367806 6.46724 -5.37174e-19)
(-1.84126 6.38165 2.709e-19)
(-2.76813 5.98714 8.48781e-20)
(-3.85712 5.27552 -5.64988e-21)
(-4.61789 4.16028 1.00812e-19)
(-5.06222 2.65534 -1.55102e-19)
(-5.05628 0.856964 1.17896e-19)
(-4.60975 -1.03214 0)
(-3.86784 -2.70855 0)
(-2.91705 -4.01288 -1.83791e-20)
(-1.86726 -4.90117 -5.61526e-20)
(-0.786532 -5.39779 5.51962e-20)
(0.249703 -5.55262 -4.65776e-20)
(1.22498 -5.46743 4.23981e-20)
(2.1453 -5.22731 0)
(2.99104 -4.88483 0)
(3.75665 -4.48189 -3.43215e-21)
(4.44296 -4.05149 -8.00261e-21)
(5.05416 -3.61826 0)
(5.59611 -3.19937 0)
(6.07531 -2.80581 0)
(6.4982 -2.44378 0)
(6.87087 -2.11593 2.78335e-21)
(7.1988 -1.82237 -1.11334e-21)
(7.48688 -1.5616 -7.05644e-22)
(7.73933 -1.33107 -6.1625e-22)
(7.95978 -1.12771 4.5315e-22)
(8.1513 -0.948196 2.17529e-22)
(8.31588 -0.789173 -9.91607e-23)
(8.48592 -0.647386 -1.13451e-24)
(-0.421298 7.60769 -7.13111e-20)
(-1.72331 7.45998 -8.79247e-20)
(-2.629 6.94783 -4.7308e-20)
(-3.62304 6.04704 -8.39891e-21)
(-4.29377 4.65491 -2.09484e-19)
(-4.60192 2.79087 -5.98932e-20)
(-4.38267 0.595289 6.58022e-20)
(-3.78611 -1.60637 -1.01713e-19)
(-2.9494 -3.46376 9.38405e-20)
(-1.95213 -4.84813 -5.19142e-20)
(-0.906261 -5.74212 6.89487e-20)
(0.12654 -6.18964 9.33304e-21)
(1.08888 -6.28314 -3.88971e-20)
(2.0056 -6.13756 2.26048e-20)
(2.85415 -5.82932 -1.28191e-20)
(3.6241 -5.4171 0)
(4.31415 -4.94753 0)
(4.9281 -4.45614 -8.78015e-23)
(5.47221 -3.96849 -4.01606e-21)
(5.95358 -3.50181 3.26823e-21)
(6.37919 -3.06665 -2.55708e-21)
(6.7555 -2.66857 1.00505e-22)
(7.08819 -2.3095 -1.32113e-21)
(7.38221 -1.98889 9.9896e-22)
(7.64176 -1.70459 -1.13843e-22)
(7.87038 -1.45353 1.11684e-21)
(8.07107 -1.23214 -3.72592e-22)
(8.24631 -1.0367 -2.2376e-22)
(8.39763 -0.863487 -1.3282e-24)
(8.55485 -0.708884 1.31812e-24)
(-0.366141 8.63302 2.02949e-20)
(-1.39597 8.40836 1.82889e-19)
(-2.14594 7.77796 -3.3586e-21)
(-2.9637 6.68682 -1.12689e-19)
(-3.47158 4.9991 5.90425e-19)
(-3.56814 2.74877 -2.62302e-19)
(-3.10091 0.181037 1.1862e-19)
(-2.40967 -2.27833 -2.84445e-20)
(-1.55037 -4.25995 2.60596e-20)
(-0.579409 -5.68105 3.71892e-20)
(0.379555 -6.53211 -3.4308e-20)
(1.29278 -6.91518 1.65282e-21)
(2.16646 -6.95448 3.91804e-20)
(2.97993 -6.74474 -6.3093e-21)
(3.71974 -6.36717 1.71478e-20)
(4.38221 -5.8872 0)
(4.97032 -5.35531 5.09567e-21)
(5.49056 -4.80859 1.35809e-21)
(5.95064 -4.27283 1.55352e-22)
(6.35815 -3.76471 -1.72429e-22)
(6.7199 -3.294 2.3259e-21)
(7.04171 -2.86537 0)
(7.32838 -2.47993 -1.24944e-21)
(7.58386 -2.13643 9.13242e-22)
(7.81133 -1.83214 -8.47849e-23)
(8.01341 -1.56348 -4.74323e-22)
(8.19225 -1.32651 -3.5483e-22)
(8.34961 -1.11717 -5.21912e-22)
(8.48644 -0.931457 2.21495e-22)
(8.62967 -0.765461 0)
(-0.195255 9.38966 3.85119e-19)
(-0.829462 9.09406 1.99431e-19)
(-1.27436 8.36912 -1.50521e-19)
(-1.84168 7.11486 0)
(-2.11838 5.19987 -1.36408e-19)
(-1.86549 2.59497 1.83668e-19)
(-1.14567 -0.314195 -3.13325e-19)
(-0.467391 -2.98266 -2.74869e-20)
(0.329358 -5.05317 4.63428e-20)
(1.14187 -6.40727 -3.94286e-20)
(1.95551 -7.21362 2.98591e-20)
(2.73824 -7.55456 -2.28232e-20)
(3.46895 -7.53523 -3.46036e-20)
(4.13298 -7.2595 -1.35284e-20)
(4.7255 -6.81602 -1.02839e-20)
(5.24899 -6.27508 -8.12226e-21)
(5.71013 -5.68945 -6.23138e-21)
(6.11721 -5.09669 4.85829e-21)
(6.4784 -4.52203 3.76305e-21)
(6.80084 -3.98114 -5.9306e-21)
(7.09031 -3.48268 -2.57727e-22)
(7.3513 -3.03033 2.58507e-22)
(7.5872 -2.62436 2.9339e-21)
(7.80052 -2.26287 -9.68892e-22)
(7.99317 -1.94265 -2.32088e-22)
(8.16659 -1.65975 0)
(8.32194 -1.40994 3.89665e-22)
(8.46014 -1.18893 4.7842e-22)
(8.58149 -0.992574 -2.23178e-22)
(8.70976 -0.816732 3.78673e-24)
(0.076451 9.7311 3.43086e-19)
(-0.0416959 9.41472 0)
(-0.0177456 8.70805 -2.37459e-19)
(-0.254083 7.41251 1.93573e-19)
(-0.0770459 5.13195 3.62235e-19)
(0.586474 2.08172 -2.36718e-19)
(1.36561 -0.935789 3.52865e-19)
(1.922 -3.58136 -1.26485e-19)
(2.54643 -5.61895 -4.50471e-20)
(3.19988 -6.99722 6.99583e-20)
(3.83834 -7.77785 -2.66442e-20)
(4.43039 -8.06751 2.0725e-20)
(4.96271 -7.98784 3.25365e-20)
(5.43161 -7.65127 1.26165e-20)
(5.84053 -7.1517 1.10532e-21)
(6.197 -6.56215 6.6091e-21)
(6.51014 -5.93601 0)
(6.78865 -5.31021 0)
(7.03987 -4.7087 0)
(7.26934 -4.14577 2.92023e-21)
(7.48091 -3.62886 0)
(7.67704 -3.16066 0)
(7.8592 -2.74073 3.0274e-23)
(8.02816 -2.36669 -1.08261e-21)
(8.18429 -2.03497 0)
(8.32773 -1.74145 0)
(8.45852 -1.48174 0)
(8.57669 -1.25148 0)
(8.68185 -1.04644 0)
(8.79441 -0.862387 -3.20545e-25)
(0.453597 9.48135 4.87306e-20)
(0.986971 9.21763 0)
(1.57685 8.60482 0)
(1.86811 7.23874 -2.64857e-19)
(2.53359 4.87121 1.46791e-19)
(3.42229 1.88013 1.98336e-19)
(4.10585 -1.28224 -2.85704e-19)
(4.61373 -4.01996 -1.41784e-21)
(5.102 -6.08596 -5.95561e-20)
(5.55768 -7.44196 1.74404e-20)
(5.96032 -8.17516 5.61022e-21)
(6.3026 -8.41004 -6.54736e-21)
(6.58742 -8.27662 -1.41572e-20)
(6.82275 -7.89236 0)
(7.01938 -7.35357 -2.6346e-22)
(7.18843 -6.73356 -7.1831e-21)
(7.33965 -6.08467 5.23859e-21)
(7.48054 -5.44215 5.33557e-21)
(7.61609 -4.82817 3.69862e-21)
(7.74911 -4.25553 0)
(7.88067 -3.73049 -5.10649e-22)
(8.01066 -3.25497 5.15183e-22)
(8.13825 -2.82807 -2.49432e-21)
(8.26225 -2.44713 9.92738e-22)
(8.38137 -2.10853 -1.24162e-21)
(8.49438 -1.80809 1.39177e-21)
(8.60021 -1.5415 -8.51513e-23)
(8.69794 -1.30443 1.09606e-22)
(8.78654 -1.09271 -2.45349e-23)
(8.88296 -0.902146 0)
(1.07212 8.26804 0)
(2.36647 8.40523 -2.25687e-20)
(3.46814 8.02187 -2.09826e-19)
(4.28122 6.66807 9.4469e-20)
(5.23626 4.33424 2.68819e-19)
(6.32182 1.3169 -7.58985e-20)
(7.04969 -1.785 -1.11391e-19)
(7.52954 -4.43436 1.8478e-19)
(7.86305 -6.414 7.07206e-20)
(8.07966 -7.69618 -2.84379e-20)
(8.20124 -8.36508 0)
(8.25222 -8.54713 2.15962e-20)
(8.25647 -8.37384 1.31667e-20)
(8.23475 -7.96251 -1.691e-20)
(8.20415 -7.40782 2.56613e-21)
(8.1775 -6.78056 1.43065e-20)
(8.16323 -6.13033 -1.14052e-20)
(8.16583 -5.48985 -1.01076e-20)
(8.18667 -4.87933 -6.20845e-21)
(8.22489 -4.31016 0)
(8.27825 -3.78776 2.80638e-21)
(8.34374 -3.31365 -5.14773e-22)
(8.4181 -2.88679 1.39653e-21)
(8.49815 -2.50462 0)
(8.58097 -2.16367 8.17431e-22)
(8.66402 -1.85998 -1.07251e-21)
(8.74512 -1.58945 -1.08526e-21)
(8.82252 -1.34797 -4.41195e-22)
(8.89456 -1.13154 -2.56308e-23)
(8.97466 -0.93609 4.30389e-23)
(9.99146 0.126316 -2.7466e-20)
(9.98245 0.257317 0)
(9.96238 0.397539 0)
(9.93061 0.548394 -2.8111e-20)
(9.88888 0.70806 3.14922e-22)
(9.83807 0.873116 0)
(9.77865 1.04017 0)
(9.71133 1.20705 2.02338e-22)
(9.63713 1.37329 -2.2208e-20)
(9.55722 1.54002 7.43403e-21)
(9.47272 1.70969 0)
(9.38472 1.88562 -3.84813e-21)
(9.29419 2.07165 -2.51506e-23)
(9.20204 2.27186 3.9204e-21)
(9.10911 2.49044 0)
(9.01622 2.73171 1.57764e-20)
(8.92418 3.00015 -8.04931e-21)
(8.83382 3.30063 1.58186e-20)
(8.74603 3.6386 4.81416e-20)
(8.66179 4.0205 -7.97307e-21)
(8.58226 4.45426 8.02639e-21)
(8.50885 4.95008 7.84497e-21)
(8.44346 5.52164 0)
(8.38914 6.18819 -3.59675e-21)
(8.3503 6.97804 0)
(8.34092 7.93597 1.48338e-21)
(8.37741 9.13517 1.39902e-20)
(8.61559 10.7116 -1.1253e-20)
(9.56236 12.8674 -1.71545e-20)
(10.4554 16.4029 -6.67695e-21)
(9.99193 0.130653 2.68176e-20)
(9.98447 0.266153 -3.34469e-21)
(9.96725 0.411188 3.35701e-21)
(9.93965 0.567198 2.68345e-20)
(9.90344 0.732241 2.73186e-20)
(9.85953 0.902699 3.40446e-20)
(9.80844 1.07497 -1.38073e-20)
(9.75089 1.24672 2.10053e-20)
(9.68794 1.41734 -7.07093e-21)
(9.62081 1.58791 -1.41816e-20)
(9.55072 1.76083 7.20086e-21)
(9.47888 1.93941 1.44499e-20)
(9.4065 2.12744 0)
(9.33476 2.32898 0)
(9.26491 2.54818 0)
(9.19825 2.78925 -7.76614e-21)
(9.13626 3.05657 -2.23264e-20)
(9.08062 3.35478 -3.4945e-22)
(9.03339 3.68909 -1.55618e-20)
(8.99713 4.06551 -1.42472e-20)
(8.97522 4.49138 0)
(8.97236 4.97591 0)
(8.99538 5.53109 0)
(9.05514 6.17306 0)
(9.16934 6.92385 0)
(9.37331 7.81414 0)
(9.72076 8.88251 0)
(10.3087 10.1773 -1.89355e-21)
(11.4504 11.6281 0)
(12.6384 12.8087 1.34671e-20)
(9.99242 0.134482 2.56334e-20)
(9.98657 0.273945 0)
(9.97229 0.423206 0)
(9.949 0.583718 -3.27023e-20)
(9.91846 0.753422 6.53571e-21)
(9.88164 0.928505 -3.31111e-20)
(9.83908 1.10516 -1.30731e-20)
(9.79151 1.28087 1.33037e-20)
(9.74003 1.45489 -6.7423e-21)
(9.68588 1.6282 1.37694e-20)
(9.63037 1.80313 0)
(9.57485 1.98289 -1.40537e-20)
(9.5207 2.17122 1.40163e-20)
(9.4694 2.37206 -1.42686e-20)
(9.42254 2.58941 2.80618e-20)
(9.38189 2.82727 0)
(9.34951 3.0897 1.43447e-20)
(9.32787 3.38093 1.38726e-20)
(9.32004 3.70554 -1.44585e-20)
(9.32991 4.06866 2.68628e-20)
(9.36268 4.47622 0)
(9.42543 4.93528 0)
(9.52824 5.45422 0)
(9.6859 6.04292 5.01251e-21)
(9.92006 6.71208 -4.31856e-21)
(10.2641 7.47111 -1.24957e-20)
(10.7608 8.31897 9.6524e-21)
(11.4409 9.23857 -5.57287e-22)
(12.4278 10.1608 -8.62755e-22)
(13.7725 10.8228 7.43876e-21)
(9.99292 0.137754 -2.50305e-20)
(9.98871 0.280591 0)
(9.97746 0.433429 -2.48554e-20)
(9.95856 0.597721 -2.4936e-20)
(9.93381 0.77129 0)
(9.90419 0.950138 0)
(9.87028 1.13026 5.73744e-20)
(9.83283 1.30895 -3.20884e-20)
(9.79291 1.48531 2.57734e-20)
(9.75182 1.6602 -1.28837e-20)
(9.71091 1.83583 -1.31235e-20)
(9.67165 2.0153 1.30672e-20)
(9.63559 2.2022 0)
(9.60442 2.4003 -2.66532e-20)