# vtk DataFile Version 5.1
vtk output
ASCII
DATASET STRUCTURED_POINTS
DIMENSIONS 102 2 2
SPACING 0.1 0 0
ORIGIN 0 0 0
CELL_DATA 101
FIELD FieldData 3
velocity 1 101 double
12.853169549 12.813016747 12.769822393 12.725593179 12.678588538 12.630476961 12.579841157 12.528050076 12.473971222 
12.418712017 12.361387727 12.302880131 12.242517807 12.18098979 12.117806735 12.053494408 11.987717774 11.920865251 
11.85273184 11.783591037 11.713346962 11.642177302 11.570077511 11.497145518 11.423453188 11.349031952 11.274017736 
11.198386246 11.122327394 11.045769729 10.968949067 10.891753441 10.814458224 10.736915901 10.659436534 10.581840605 
10.504469252 10.427113298 10.350142383 10.273319027 10.197039646 10.121039026 10.045739278 9.9708474498 9.8968107288 
9.8233080262 9.7508112749 9.6789706549 9.6082826176 9.5383680154 9.4697475122 9.4020122331 9.3357064832 9.2703916601 
9.206634679 9.1439678207 9.082978918 9.0231725728 8.9651549739 8.9084055312 8.8535451437 8.8000317925 8.7484961369 
8.6983799964 8.6503173143 8.603740748 8.5592793021 8.5163654227 8.475612993 8.4364653608 8.3995089424 8.3642114554 
8.3311171572 8.2997341268 8.2705472669 8.2431236698 8.217869061 8.194430952 8.1731133666 8.1536684383 8.1362732406 
8.1208115092 8.1073054387 8.0958000373 8.0861321291 8.0785401844 8.0726428081 8.0689063805 8.0666963809 8.0667434438 
8.0681233668 8.0718688037 8.0767281891 8.0840747892 8.0922915158 8.1031309478 8.1145726137 8.1287863611 8.1433116875 
8.1607719308 8.178232174 
pressure 1 101 double
263.84144282 260.01136785 256.18129288 252.00807147 247.79339535 243.28900075 238.71044908 233.88806908 228.96669761 
223.840779 218.59800132 213.18426315 207.64189445 201.95731866 196.13762567 190.20043114 184.12618082 177.95578457 
171.65028609 165.26725404 158.75438998 152.1803781 145.48462203 138.74230836 131.88872671 125.00173399 118.01597098 
111.00877944 103.91702414 96.814874159 89.643809318 82.472593645 75.249326415 68.035471609 60.787446641 53.557784017 
46.31267977 39.094306239 31.87991565 24.700045335 17.544142324 10.429950179 3.3601438093 -3.6613972199 -10.617818783 
-17.520105187 -24.336338542 -31.093306104 -37.743201691 -44.329495381 -50.787729036 -57.178870345 -63.4211145 -69.593663571 
-75.596755233 -81.528465072 -87.270567787 -92.940527965 -98.40128507 -103.79005242 -108.9507291 -114.04044316 -118.8840551 
-123.65853635 -128.16996303 -132.6147923 -136.78087339 -140.88345129 -144.69306501 -148.44265041 -151.88677307 -155.27450056 
-158.34624685 -161.36512309 -164.05976733 -166.70464688 -169.0196254 -171.28716712 -173.22206257 -175.11066789 -176.66717638 
-178.17691119 -179.35879339 -180.49129568 -181.30431321 -182.06268861 -182.51452693 -182.9032348 -183.00341408 -183.02814677 
-182.78792184 -182.45547989 -181.88773052 -181.20589681 -180.32500905 -179.30242464 -178.12416415 -176.77020889 -175.31158655 
-173.63626725 -171.91539724 
crossSection 1 101 double
1.0304495109 1.029997593 1.0295459723 1.0290542279 1.0285579561 1.0280279672 1.0274896727 1.0269231686 1.0263455185 
1.0257443775 1.0251300781 1.0244963261 1.0238481247 1.0231839306 1.0225046184 1.0218122876 1.0211047023 1.0203866693 
1.019653697 1.018912516 1.0181570918 1.0173954269 1.0166205349 1.015841149 1.0150498192 1.0142555627 1.0134508674 
1.0126446653 1.011829713 1.0110145518 1.0101924797 1.0093713927 1.0085453575 1.0077214102 1.0068945766 1.0060708511 
1.0052463798 1.0044259579 1.0036069918 1.0027929385 1.0019825876 1.0011779335 1.0003792595 0.99958698355 0.99880298316 
0.99802599517 0.99725958356 0.99650070677 0.99575470067 0.99501665507 0.99429375609 0.99357914233 0.99288192067 0.99219320494 
0.99152408391 0.99086358392 0.99022482529 0.98959469777 0.98898838832 0.98839061799 0.98781865742 0.98725504781 0.98671913814 
0.98619130422 0.98569294089 0.98520230372 0.98474276835 0.98429055177 0.98387090674 0.98345813609 0.98307922094 0.98270672387 
0.98236915345 0.98203756264 0.98174172699 0.98145148481 0.98119755073 0.98094891561 0.98073682974 0.98052988412 0.98035937753 
0.98019403722 0.98006463124 0.97994065598 0.97985166929 0.97976867424 0.97971923099 0.9796766989 0.97966573782 0.97966303173 
0.97968931606 0.97972569211 0.97978782036 0.97986244056 0.97995885794 0.98007080256 0.98019981316 0.98034809248 0.98050787213 
0.98069143728 0.98088004712 
