# vtk DataFile Version 5.1
vtk output
ASCII
DATASET STRUCTURED_POINTS
DIMENSIONS 102 2 2
SPACING 0.1 0 0
ORIGIN 0 0 0
CELL_DATA 101
FIELD FieldData 3
velocity 1 101 double
9.0729490169 9.1629557647 9.2532246446 9.3428388753 9.4323654236 9.5212500198 9.6097426498 9.6975766856 9.7847572806 
9.8712369127 9.9568406859 10.041679703 10.125455139 10.208385212 10.290094081 10.370864762 10.450282184 10.528660727 
10.605575278 10.68134632 10.755560163 10.828525334 10.899854361 10.969831879 11.03810587 11.104930144 11.169992939 
11.233514238 11.295223926 11.355308118 11.413537249 11.470065638 11.524701465 11.577570723 11.628515466 11.677637662 
11.724808798 11.770111511 11.813442078 11.854868576 11.894307482 11.931816944 11.967329261 12.000897014 12.032464245 
12.062081996 12.089702288 12.11537831 12.139066599 12.160825849 12.180613911 12.198498057 12.214434449 12.228501781 
12.240651654 12.250976865 12.259421636 12.266095447 12.270932327 12.274060961 12.275402321 12.275106817 12.273079411 
12.269494772 12.264238803 12.257512994 12.249181043 12.239473842 12.228229673 12.21571138 12.201728633 12.186578674 
12.170039473 12.15244489 12.13353838 12.113692253 12.0926131 12.0707129 12.047659773 12.023905681 11.999079749 
11.973672953 11.947276419 11.920417419 11.892652116 11.864539047 11.835605125 11.806432117 11.776526839 11.746482441 
11.715799107 11.685064772 11.653791787 11.62254045 11.59086055 11.559255295 11.52734493 11.495537773 11.463566651 
11.431697441 11.399828231 
pressure 1 101 double
-87.96068927 -79.427439356 -70.894189442 -62.424106112 -53.946983103 -45.566225477 -37.178079974 -28.911916167 -20.6435279 
-12.516318966 -4.3963753896 3.5684587096 11.513344064 19.293371837 27.038610196 34.612444107 42.135400689 49.482755802 
56.762666174 63.864417944 70.88229934 77.720537689 84.459101903 91.017180028 97.460753143 103.72333061 109.85778336 
115.81086394 121.62355523 127.25452037 132.73425519 138.03189426 143.16889621 148.1234346 152.90933217 157.51245807 
161.94028306 166.18517321 170.24936905 174.13071368 177.82715086 181.34117695 184.66717276 187.81166493 190.76600417 
193.54032176 196.12327546 198.52836438 200.74170353 202.7801011 204.62710281 206.30293396 207.78837773 209.10734095 
210.2374931 211.20683482 211.98941976 212.61789603 213.06205331 213.35987799 213.47610487 213.45488382 213.25496331 
212.92761466 212.42452969 211.80519028 211.0130249 210.11694361 209.05077286 207.89419157 206.56996166 205.16998506 
203.6043862 201.97884149 200.18917575 198.35646378 196.36051075 194.3394498 192.15533289 189.96499653 187.61105297 
185.27060325 182.76526089 180.29377786 177.65544194 175.07175051 172.31870334 169.64119816 166.79151488 164.03798382 
161.10946672 158.29691325 155.30704732 152.45151211 149.41744374 146.53382555 143.47236601 140.5742422 137.50189679 
134.6013439 131.53436677 
crossSection 1 101 double
0.99014809691 0.99109745909 0.9920481873 0.99299323134 0.99394041356 0.99487816132 0.99581806522 0.99674560453 0.99767469049 
0.99858917921 0.99950410667 1.0004027791 1.0013004087 1.0021805836 1.003057976 1.0039170662 1.0047714785 1.0056070003 
1.0064358807 1.0072454642 1.0080464466 1.008827845 1.0095987429 1.0103498417 1.0110886429 1.0118074684 1.0125123312 
1.0131970583 1.0138663081 1.0145152673 1.0151473958 1.01575908 1.0163527446 1.0169258158 1.0174798413 1.0180131361 
1.0185265171 1.0190190526 1.0194909569 1.019941936 1.0203717086 1.0207805249 1.0211676923 1.0215339342 1.0218782083 
1.0222016627 1.0225029442 1.022783599 1.0230419802 1.0232800257 1.0234957916 1.0236916204 1.0238652486 1.0240194545 
1.0241516134 1.0242649876 1.0243565325 1.0244300591 1.0244820266 1.024516875 1.0245304752 1.024527992 1.0245045987 
1.0244662965 1.0244074359 1.0243349807 1.0242423181 1.0241375152 1.0240128402 1.0238776185 1.0237228291 1.0235592238 
1.0233763098 1.0231864441 1.0229774699 1.0227635357 1.0225306225 1.0222948605 1.0220401693 1.0217848483 1.0215105628 
1.0212379591 1.0209462705 1.0206586464 1.0203517386 1.0200513215 1.0197313586 1.0194203197 1.0190894357 1.0187698691 
1.0184301591 1.0181040609 1.0177575761 1.0174268236 1.0170755684 1.0167418994 1.0163878318 1.0160528249 1.0156978597 
1.0153629134 1.0150089291 
