# vtk DataFile Version 5.1
vtk output
ASCII
DATASET STRUCTURED_POINTS
DIMENSIONS 102 2 2
SPACING 0.1 0 0
ORIGIN 0 0 0
CELL_DATA 101
FIELD FieldData 3
velocity 1 101 double
10 9.9121384754 9.8247093295 9.7383969991 9.6528305019 9.5683799625 9.484949041 9.4026621172 9.3216344471 
9.2418012446 9.163437211 9.0863350587 9.0108858163 8.936778134 8.8644837746 8.7936189067 8.7247067411 8.65731679 
8.5919997561 8.5282994505 8.466774657 8.4069602848 8.3494077041 8.2936561376 8.2402374579 8.1887052943 8.1395629409 
8.0923857801 8.0476421144 8.0049339883 7.9646906901 7.9265436574 7.8908812946 7.8573652074 7.8263429939 7.7975054401 
7.7711611802 7.747027603 7.725377817 7.7059518063 7.6889920307 7.6742557814 7.6619610323 7.6518759582 7.6442013474 
7.6387088396 7.6355903279 7.634612644 7.6359679165 7.6394091842 7.6451386307 7.6528859508 7.6628737334 7.6747983658 
7.6889135548 7.7048721704 7.7229699316 7.742805914 7.7647287292 7.7882735109 7.8138524144 7.8409268335 7.8699826488 
7.900398312 7.9327428741 7.9663035147 8.0017408643 8.0382436841 8.0765712232 8.1158082082 8.1568178072 8.1985770081 
8.2420560572 8.2861228278 8.3318552276 8.3780134134 8.4257805005 8.473813573 8.5233949791 8.5730871096 8.6242615554 
8.6753986235 8.7279446487 8.780315182 8.8340118155 8.8874078553 8.9420352319 8.9962531215 9.0515930513 9.106434142 
9.1622706407 9.2175419132 9.2736617029 9.3291762979 9.3853692877 9.4409469448 9.4970067017 9.5524740995 9.608198321 
9.6633893179 9.7185803149 
pressure 1 101 double
-1.3775483465 -9.6015311699 -17.825513993 -25.889099119 -33.958293984 -41.837482682 -49.721150145 -57.391764264 -65.060635772 
-72.498623915 -79.924904169 -87.106619418 -94.264016165 -101.16646873 -108.03024276 -114.63132993 -121.17835888 -127.45707388 
-133.6659241 -139.60254474 -145.45354636 -151.02980395 -156.50512462 -161.70435325 -166.78806705 -171.59533312 -176.27348127 
-180.67569308 -184.93633401 -188.92233132 -192.75557802 -196.31620134 -199.71424437 -202.84238427 -205.79949954 -208.490126 
-211.00266667 -213.25283906 -215.31921155 -217.12806986 -218.74869411 -220.11743242 -221.29468718 -222.22651032 -222.9646644 
-223.46472924 -223.76985997 -223.84520259 -223.72510288 -223.38455332 -222.84862908 -222.10271507 -221.16187457 -220.02271611 
-218.68925323 -217.17044938 -215.4579225 -213.57443209 -211.49754058 -209.26555826 -206.84001831 -204.27684713 -201.51926879 
-198.64319073 -195.5709577 -192.40110292 -189.03225687 -185.58847266 -181.94160338 -178.24432339 -174.33846625 -170.4085804 
-166.26312231 -162.12184778 -157.75644268 -153.42519602 -148.85969084 -144.35996129 -139.61433306 -134.96755706 -130.06186165 
-125.28929844 -120.2436312 -115.36623948 -110.20070786 -105.23902347 -99.973731251 -94.947746119 -89.602788773 -84.531831318 
-79.127301582 -74.029919175 -68.58592158 -63.479765862 -58.016438607 -52.918154773 -47.455696943 -42.38081848 -36.939520199 
-31.902370878 -26.502643643 
crossSection 1 101 double
0.99984457843 0.99891746293 0.99799163635 0.99708511592 0.99617920071 0.99529580801 0.99441308871 0.99355535125 0.99269891756 
0.99186932556 0.99104207643 0.99024305455 0.98944769931 0.98868158167 0.98792063903 0.9871896472 0.98646544276 0.98577166641 
0.98508632935 0.98443170934 0.98378716865 0.98317348242 0.98257146321 0.98200031238 0.9814423326 0.98091513261 0.98040250037 
0.97992047219 0.97945428402 0.97901844777 0.9785995879 0.97821075841 0.97783989919 0.97749868336 0.97717628699 0.97688308285 
0.97660940429 0.97636440181 0.97613949296 0.97594267635 0.97576639149 0.97561754295 0.97548954524 0.97538825009 0.97530801921 
0.97525367217 0.97522051279 0.97521232537 0.97522537656 0.97526238538 0.97532063058 0.97540170652 0.97550398411 0.97562784213 
0.97577285638 0.97593806587 0.97612439812 0.97632939376 0.97655551369 0.9767986066 0.97706288346 0.97734227264 0.97764298629 
0.97795677022 0.97829212181 0.9786383102 0.97900643243 0.97938295808 0.97978192485 0.98018665547 0.98061449089 0.98104524111 
0.98149992762 0.98195447096 0.98243395665 0.98291003763 0.98341224252 0.98390758881 0.98443041012 0.98494274486 0.98548406113 
0.98601111538 0.98656878958 0.98710831491 0.98768019629 0.9882299776 0.98881390249 0.98937177096 0.98996556251 0.99052940867 
0.99113087561 0.99169866246 0.99230559701 0.99287537315 0.99348554827 0.9940554608 0.99466662693 0.99523493403 0.99584481567 
0.99640989856 0.99701619089 
