# vtk DataFile Version 5.1
vtk output
ASCII
DATASET STRUCTURED_POINTS
DIMENSIONS 102 2 2
SPACING 0.1 0 0
ORIGIN 0 0 0
CELL_DATA 101
FIELD FieldData 3
velocity 1 101 double
8.2366442431 8.1732226716 8.1124372297 8.053423945 7.9972036543 7.9427825472 7.8912733826 7.8416040877 7.7949322201 
7.7501496045 7.7084202018 7.6686339655 7.6319302782 7.5972246981 7.5656074184 7.5360412624 7.5095481457 7.4851547693 
7.463800507 7.444588144 7.4283644732 7.4143167187 7.4031927538 7.3942692364 7.3881920069 7.3843292387 7.3832244139 
7.3843368033 7.3881095855 7.394090595 7.4026267608 7.4133501882 7.4265172569 7.4418386168 7.4594871253 7.4792451091 
7.5012099716 7.5252279612 7.5513298927 7.5794175066 7.6094644906 7.6414191408 7.675207921 7.7108163628 7.7481339394 
7.7871737966 7.8277989118 7.8700401636 7.9137447581 7.9589511757 8.0055018036 8.0534323283 8.1025915174 8.1530015715 
8.2045291175 8.2571718453 8.3108260325 8.3654534672 8.420992208 8.4773563643 8.5345382517 8.592392145 8.6509774151 
8.7100760089 8.7698274116 8.8299284961 8.8906120722 8.951477078 9.0128628452 9.0742575963 9.1361201445 9.1978155553 
9.259934554 9.3217072765 9.3838678988 9.4455009229 9.507494189 9.5687774031 9.6304004503 9.6911311645 9.7521874467 
9.8121708854 9.8724703104 9.9315200746 9.9908790845 10.048817589 10.107059191 10.163718075 10.220671834 10.27589235 
10.331394344 10.385027714 10.43892047 10.490828223 10.542960641 10.59301491 10.643242178 10.691325962 10.739509492 
10.785516869 10.831524246 
pressure 1 101 double
-167.65666986 -173.50270404 -179.34873823 -184.78038804 -190.19666254 -195.19914353 -200.16881341 -204.7288744 -209.23765546 
-213.34377673 -217.37993999 -221.02249172 -224.57685608 -227.74822041 -230.81413833 -233.50879789 -236.0821303 -238.29672562 
-240.37580352 -242.10916165 -243.69473287 -244.94786923 -246.04302956 -246.81912544 -247.42923431 -247.73359183 -247.86617314 
-247.70615031 -247.37077959 -246.75570744 -245.96388691 -244.9049712 -243.6699945 -242.18020428 -240.51701289 -238.61095837 
-236.53599175 -234.22979373 -231.76083512 -229.07198843 -226.22800838 -223.17524136 -219.9762407 -216.57937307 -213.046227 
-209.32602794 -205.48033265 -201.45838093 -197.32230413 -193.02085186 -188.61698814 -184.05882955 -179.41006168 -174.61840801 
-169.7477747 -164.74613605 -159.67670704 -154.48878178 -149.24354058 -143.89311267 -138.4948475 -133.00569177 -127.47689503 
-121.87269019 -116.23546687 -110.53971584 -104.81570128 -99.051658123 -93.261945321 -87.452548066 -81.617625038 -75.785433183 
-69.92513074 -64.092266377 -58.225716727 -52.413807961 -46.559414562 -40.789539863 -34.964958994 -29.257591071 -23.479725532 
-17.854673322 -12.139678679 -6.6160260744 -0.97932977712 4.4246301672 9.9682965616 15.235133074 20.671688493 25.78491109 
31.100866473 36.045010162 41.227397308 45.988115295 51.02440372 55.588567515 60.466570408 64.822376744 69.530147564 
73.667230985 78.192952756 
crossSection 1 101 double
0.9813470438 0.98070607406 0.98006573209 0.97947134135 0.97887917143 0.97833271913 0.97779030395 0.97729299234 0.97680164616 
0.9763545023 0.97591527581 0.97551913761 0.97513282251 0.97478832843 0.97445546213 0.97416304407 0.97388391499 0.97364379412 
0.97341844775 0.97323063292 0.97305887887 0.97292316738 0.97280458753 0.97272056791 0.97265452557 0.97262158236 0.97260723247 
0.97262455252 0.97266085282 0.97272743309 0.97281315607 0.97292781266 0.97306155826 0.97322293639 0.97340314523 0.97360973015 
0.97383469714 0.97408482563 0.97435271384 0.97464458619 0.9749534409 0.97528513315 0.97563289579 0.97600237216 0.97638689422 
0.97679201944 0.97721107614 0.97764962767 0.97810093132 0.9785706113 0.97905182427 0.97955027105 0.98005901838 0.98058381762 
0.98111769912 0.98166639431 0.98222299614 0.98279309861 0.98337000429 0.9839590026 0.98455380351 0.98515917228 0.9857694774 
0.98638868554 0.98701213066 0.98764264912 0.98827690523 0.98891621434 0.98955899527 0.99020459168 0.99085366094 0.99150306433 
0.99215624104 0.99280700069 0.99346216456 0.99411186594 0.99476696116 0.99541323268 0.99606627071 0.99670679068 0.99735585191 
0.99798835599 0.99863158996 0.99925387918 0.99988950363 1.0004994531 1.0011257514 1.0017213197 1.0023366372 1.0029158769 
1.0035186153 1.0040796844 1.004668295 1.0052094691 1.0057824447 1.0063021302 1.0068579955 1.0073547441 1.0078920452 
1.0083645683 1.0088818609 
