# vtk DataFile Version 5.1
vtk output
ASCII
DATASET STRUCTURED_POINTS
DIMENSIONS 102 2 2
SPACING 0.1 0 0
ORIGIN 0 0 0
CELL_DATA 101
FIELD FieldData 3
velocity 1 101 double
7.1468304511 7.1896213984 7.2360293704 7.2833432133 7.333922113 7.3854376463 7.439871428 7.4952569945 7.5532239113 
7.6121407351 7.6733156351 7.7354209211 7.7994773323 7.864427097 7.931039104 7.9984907126 8.0673346347 8.1369490301 
8.2077049114 8.2791485324 8.3515014555 8.4244478513 8.498089087 8.572220242 8.6468482449 8.721855635 8.7971768968 
8.8727623019 8.948492071 9.0243681724 9.1002310491 9.1761218401 9.2518522572 9.3274932947 9.4028358931 9.4779744186 
9.5526843268 9.6270792804 9.7009223093 9.77434426 9.8470970229 9.919328035 9.9907780039 10.061611455 10.131556964 
10.200797335 10.26904754 10.336510175 10.402884984 10.468395853 10.532725831 10.59612128 10.658247541 10.71937405 
10.779148146 10.837862097 10.895145905 10.951313365 11.005978983 11.0594755 11.111405152 11.162115578 11.21120154 
11.259019869 11.305164403 11.34999364 11.393108956 11.434861003 11.474869233 11.513464809 11.550297998 11.585666581 
11.619266696 11.651346495 11.68166544 11.710403392 11.737403033 11.762754831 11.786407023 11.80833717 11.828623773 
11.847105666 11.864018557 11.879034598 11.892575651 11.904117394 11.914298441 11.92236676 11.929209507 11.933814799 
11.937350698 11.938513116 11.938783179 11.936532897 11.933587437 11.927964947 11.921863255 11.912919687 11.903729619 
11.891527097 11.879324576 
pressure 1 101 double
-273.67186523 -269.33372223 -264.99557923 -260.25615568 -255.48848439 -250.37680514 -245.21404936 -239.75995372 -234.23725232 
-228.4711582 -222.6239912 -216.57667401 -210.4405425 -204.14292968 -197.75307235 -191.23605343 -184.62720137 -177.92145365 
-171.12762343 -164.26345299 -157.3177769 -150.32497479 -143.25956618 -136.16727985 -129.01313046 -121.84975011 -114.63665609 
-107.42971611 -100.18622886 -92.962324045 -85.715722037 -78.500438425 -71.276716344 -64.094576224 -56.918447814 -49.792868368 
-42.687779892 -35.641044678 -28.629196181 -21.682438555 -14.784810536 -7.9580079777 -1.1943914422 5.4936303251 12.104602137 
18.636156371 25.076975944 31.43549465 37.689748937 43.859756318 49.912097174 55.879177827 61.715294866 67.466057718 
73.072654182 78.594693104 83.95946517 89.241317109 94.352937003 99.384038365 104.2321416 109.0027835 113.57796048 
118.07924343 122.37303551 126.59682412 130.60172425 134.54060249 138.25006023 141.89728766 145.30571862 148.65518827 
151.75798748 154.80418583 157.59774478 160.33571451 162.81744113 165.24274745 167.41108831 169.51978962 171.37425327 
173.16287712 174.70405748 176.1695829 177.39918113 178.53902862 179.45987181 180.27190222 180.88795693 181.37048088 
181.6868593 181.83865859 181.861615 181.68197766 181.41889256 180.9076634 180.36701247 179.52466057 178.7159658 
177.54367075 176.4774308 
crossSection 1 101 double
0.96982019876 0.97028788307 0.97075590577 0.97126760798 0.97178276835 0.97233555517 0.9728943444 0.9734851901 0.97408401652 
0.97470982381 0.97534504617 0.97600266582 0.97667062369 0.97735687312 0.97805391392 0.97876559458 0.97948809731 0.980222011 
0.98096640642 0.98171937048 0.98248215807 0.98325101957 0.98402878119 0.98481042998 0.9855998407 0.98639122138 0.98718905772 
0.98798718049 0.98879032632 0.98959227664 0.99039772727 0.99120067429 0.99200553896 0.99280674286 0.99360824594 0.99440506395 
0.99520054531 0.99599043665 0.99677735122 0.99755788089 0.99833379785 0.99910263935 0.99986524098 1.0006201781 1.0013672585 
1.0021061862 1.0028356502 1.0035565746 1.0042664363 1.0049674741 1.0056558561 1.0063352334 1.007000366 1.0076564163 
1.0082966373 1.0089277993 1.0095415536 1.0101463688 1.0107322087 1.0113093182 1.011865904 1.0124140456 1.0129401469 
1.0134581515 1.0139526485 1.0144394367 1.0149013221 1.015355901 1.0157842821 1.016205741 1.0165998427 1.0169873504 
1.0173465179 1.0176993187 1.0180230209 1.0183404317 1.0186282647 1.0189096719 1.0191613622 1.0194062194 1.019621628 
1.0198294536 1.020008579 1.020178955 1.0203219361 1.0204545075 1.0205616262 1.0206561011 1.0207277842 1.0207839351 
1.0208207543 1.0208384209 1.0208410927 1.0208201861 1.0207895689 1.0207300773 1.0206671675 1.0205691635 1.0204750887 
1.0203387397 1.0202147496 
