# vtk DataFile Version 5.1
vtk output
ASCII
DATASET STRUCTURED_POINTS
DIMENSIONS 102 2 2
SPACING 0.1 0 0
ORIGIN 0 0 0
CELL_DATA 101
FIELD FieldData 3
velocity 1 101 double
10.927050983 10.839697113 10.751559117 10.663973774 10.575955494 10.488466112 10.400860179 10.313794064 10.226897599 
10.140580791 10.054693546 9.9694495002 9.8848718784 9.8010199921 9.71805097 9.6359049587 9.5548399393 9.474706102 
9.3958347294 9.3180101263 9.2416140941 9.1663846778 9.0927355616 9.0203743013 8.9497314501 8.8804964893 8.8131050093 
8.7472378963 8.6833267614 8.6210507923 8.560831112 8.5023498205 8.4460132928 8.3915091208 8.3392266946 8.2888598695 
8.2407806369 8.1946882765 8.150938609 8.1092340703 8.0699170084 8.032689488 7.9978843877 7.965198777 7.9349612107 
7.9068582019 7.8812201055 7.8577165403 7.8366865929 7.8177760418 7.8013402602 7.786993812 7.7751163402 7.7652835818 
7.7579076513 7.7525178133 7.749566849 7.7485300916 7.7499089364 7.7531177505 7.7587139815 7.7660446772 7.7757299876 
7.7870442462 7.8006758677 7.8158223312 7.8332444735 7.8520603505 7.873105636 7.8954183018 7.9199091795 7.9455377513 
7.9732878714 8.0020447432 8.0328602819 8.0645526033 8.0982335263 8.1326646141 8.169005873 8.2059765433 8.2447692004 
8.2840790137 8.3251112934 8.3665597056 8.4096179715 8.4530053869 8.4978750478 8.543003767 8.5894701171 8.6361451773 
8.6839941763 8.7320240816 8.7810430796 8.8302404234 8.8802188363 8.9304008138 8.9811307578 9.0321195696 9.0833964642 
9.1350196106 9.1866427569 
pressure 1 101 double
85.025338735 76.860843376 68.696348016 60.526540529 52.338349732 44.187319247 36.008425589 27.901518604 19.764448619 
11.727999061 3.6647977421 -4.2741433242 -12.231960488 -20.045894681 -27.867419279 -35.528669377 -43.183703559 -50.664679566 
-58.123861069 -65.397322508 -72.63226639 -79.671579061 -86.65503112 -93.434416132 -100.14041293 -106.63518547 -113.03921596 
-119.2260111 -125.30517487 -131.16215765 -136.89531528 -142.40237235 -147.77028356 -152.90919378 -157.8946398 -162.64922148 
-167.23710843 -171.59334138 -175.77078224 -179.71690316 -183.47327657 -186.99984693 -190.32683164 -193.42677772 -196.31836239 
-198.98698774 -201.43945639 -203.67442757 -205.68632146 -207.48762835 -209.05968604 -210.42957827 -211.56465573 -212.50755759 
-213.21053072 -213.73293673 -214.0105892 -214.12094298 -213.98184196 -213.6904011 -213.14476424 -212.46345377 -211.52301023 
-210.46526733 -209.14311592 -207.72372846 -206.03419574 -204.26913671 -202.22763766 -200.13389777 -197.75680152 -195.35222167 
-192.65672428 -189.9598295 -186.9638357 -183.99367187 -180.71568715 -177.49166153 -173.95069577 -170.49242222 -166.70790554 
-163.03505511 -159.02676638 -155.15892378 -150.94693177 -146.90345821 -142.50807519 -138.30797786 -133.74972489 -129.4115336 
-124.71111659 -120.25276803 -115.43106305 -110.8697932 -105.94783966 -101.30008493 -96.299084674 -91.580392515 -86.521712821 
-81.746662785 -76.651840731 
crossSection 1 101 double
1.0096635611 1.0087295587 1.0077968517 1.0068648322 1.0059320121 1.0050047124 1.004075531 1.0031557989 1.002233915 
1.0013246776 1.0004136564 0.99951788896 0.99862119852 0.9977418945 0.99686289887 0.99600304078 0.99514499102 0.9943075222 
0.99347354531 0.9926613429 0.99185442933 0.99107027848 0.9902932688 0.98953983829 0.98879540943 0.98807522894 0.98736588061 
0.98668131974 0.98600936137 0.98536261076 0.98473014949 0.98412320403 0.98353213404 0.98296677852 0.98241877203 0.98189656926 
0.98139306944 0.98091535095 0.98045756694 0.98002542635 0.97961433042 0.97922861941 0.97886494644 0.97852627338 0.97821052249 
0.97791925356 0.97765169189 0.97740795459 0.97718862317 0.97699231204 0.97682103342 0.97667181783 0.97654820535 0.97644553907 
0.97636900756 0.97631213991 0.97628191747 0.97626990586 0.97628504654 0.97631677004 0.97637616706 0.97645034088 0.97655274023 
0.97666793085 0.97681194484 0.97696658562 0.97715070632 0.97734311326 0.97756572549 0.97779411325 0.97805350691 0.97831600466 
0.97861038629 0.97890505353 0.97923255691 0.97955739898 0.9799160946 0.98026907792 0.98065698134 0.98103604834 0.9814511273 
0.98185421084 0.9822943911 0.98271942861 0.98318259858 0.98362754562 0.98411155976 0.98457440316 0.98507708426 0.98555585472 
0.98607499514 0.9865677793 0.98710114138 0.98760609314 0.98815140886 0.98866676011 0.98922173026 0.98974580074 0.99030809382 
0.99083930004 0.99140655114 
