# vtk DataFile Version 5.1
vtk output
ASCII
DATASET STRUCTURED_POINTS
DIMENSIONS 102 2 2
SPACING 0.1 0 0
ORIGIN 0 0 0
CELL_DATA 101
FIELD FieldData 3
velocity 1 101 double
11.763355757 11.684987593 11.604886044 11.524757849 11.44323656 11.361644178 11.278969768 11.196214038 11.112661875 
11.029048022 10.944901293 10.860738205 10.776286792 10.691886148 10.607425323 10.523100566 10.438929531 10.354994669 
10.271414953 10.18818321 10.105496942 10.023279258 9.9417873396 9.8608907453 9.7808909392 9.7016168333 9.6234017952 
9.5460441446 9.4698994286 9.3947429302 9.3209449932 9.248263229 9.1770774671 9.1071310892 9.0388099381 8.9718449175 
8.906626047 8.8428720228 8.7809766557 8.7206454157 8.6622767998 8.605560922 8.5509029792 8.4979746604 8.4471908334 
8.3982009255 8.3514332401 8.3065105102 8.2638788624 8.2231294876 8.1847311634 8.1482384661 8.1141478943 8.0819723163 
8.0522410507 8.0244203617 7.999077285 7.9756270147 7.9546787496 7.9355928295 7.9190243422 7.9042759382 7.8920513149 
7.8815938293 7.8736572037 7.8674254253 7.863702035 7.8616134096 7.8620107586 7.8639667574 7.8683758597 7.8742634176 
7.8825601027 7.8922531027 7.9042993592 7.9176601375 7.9333054765 7.9501863269 7.9692691482 7.9895138038 8.0118627495 
8.0353078216 8.060743105 8.0872194633 8.1155541635 8.1448882412 8.1759295546 8.2079445666 8.2414950115 8.2760120739 
8.3118706444 8.3487097869 8.3866730549 8.4256541204 8.4655172849 8.5064607112 8.5480185982 8.5907460795 8.6337940926 
8.6781291201 8.7224641477 
pressure 1 101 double
162.88207559 155.55334964 148.22462368 140.7560074 133.25867821 125.67052936 118.03460894 110.348847 102.60432074 
94.84426922 87.021134326 79.211351588 71.339632312 63.505733273 55.615470839 47.78394088 39.905157461 32.103159274 
24.265796666 16.520970589 8.7548050807 1.0950635712 -6.5704007794 -14.117083611 -21.652740526 -29.058543063 -36.435825228 
-43.673294477 -50.864326866 -57.906594508 -64.884356099 -71.705352051 -78.443842061 -85.018502882 -91.49290758 -97.797376898 
-103.98423312 -109.99605116 -115.87340282 -121.57168218 -127.11922629 -132.48481118 -137.68403026 -142.69963688 -147.53391507 
-152.18425079 -156.63897137 -160.91083113 -164.97345389 -168.85579256 -172.51590975 -175.99988959 -179.2492601 -182.32827319 
-185.16083488 -187.83050067 -190.24236153 -192.50050027 -194.48990951 -196.33649274 -197.90379339 -199.34087297 -200.48843787 
-201.52005541 -202.25220885 -202.8842876 -203.2072151 -203.44743651 -203.36908515 -203.22675253 -202.75672452 -202.24261603 
-201.39205806 -200.51827142 -199.29976205 -198.07955331 -196.50699086 -194.95460919 -193.04310187 -191.17362269 -188.93938276 
-186.76854083 -184.22878419 -181.77280855 -178.94566067 -176.22111307 -173.12552186 -170.14914021 -166.80479619 -163.59334441 
-160.02060789 -156.59073357 -152.81056854 -149.17866966 -145.21258336 -141.39468546 -137.26467249 -133.2763176 -129.00480715 
-124.86095573 -120.47076005 
crossSection 1 101 double
1.0186357627 1.0177861125 1.016937525 1.0160738311 1.0152079229 1.014332652 1.013453013 1.0125687873 1.011678971 
1.0107885468 1.0098920736 1.0089983194 1.0080986773 1.0072045516 1.0063051947 1.0054137229 1.0045180671 1.0036323191 
1.0027437351 1.0018668016 1.0009886064 1.0001235761 0.99925902171 0.99840895878 0.99756121969 0.99672914036 0.99590130008 
0.99509015069 0.99428518688 0.99349782205 0.99271859144 0.99195775316 0.99120697643 0.99047527415 0.98975552098 0.98905541301 
0.98836908785 0.98770286428 0.9870521931 0.9864219604 0.98580897877 0.98521664633 0.98464318895 0.98409045778 0.98355814977 
0.98304650334 0.98255675349 0.98208745095 0.98164144686 0.98121551861 0.9808142239 0.98043246953 0.98007662312 0.9797396117 
0.97942972895 0.9791378016 0.97887417737 0.97862745196 0.97841016536 0.9782085432 0.97803746385 0.97788063828 0.97775543394 
0.97764290049 0.97756304571 0.97749411378 0.97745889943 0.97743270519 0.97744124867 0.97745676899 0.9775080247 0.97756409192 
0.97765686196 0.97775217929 0.97788512411 0.97801828151 0.97818993023 0.97835942051 0.97856818093 0.97877241599 0.97901658396 
0.97925391104 0.97953167923 0.97980039688 0.98010986282 0.98040823666 0.98074741004 0.98107368803 0.98144049722 0.98179292438 
0.98218522231 0.98256205477 0.98297762415 0.98337714239 0.9838137004 0.98423422157 0.98468942422 0.98512931336 0.98560075967 
0.98605843974 0.98654367591 
