# vtk DataFile Version 5.1
vtk output
ASCII
DATASET STRUCTURED_POINTS
DIMENSIONS 102 2 2
SPACING 0.1 0 0
ORIGIN 0 0 0
CELL_DATA 101
FIELD FieldData 3
velocity 1 101 double
10.927050983 11.006091146 11.083073858 11.1585699 11.231865288 11.303654274 11.373142695 11.441081428 11.506654426 
11.570618169 11.63217818 11.692059363 11.749519525 11.805226511 11.858510562 11.909966501 11.959008697 12.006150502 
12.050895568 12.093673026 12.134076097 12.172451112 12.208477683 12.242423656 12.274049526 12.303550859 12.330762075 
12.355813792 12.378606599 12.399214067 12.417594865 12.43377361 12.447758927 12.459534512 12.469150992 12.476558973 
12.48184338 12.484929299 12.485928538 12.484747962 12.481519113 12.476137704 12.468748066 12.459241667 12.447768808 
12.434223532 12.418755343 12.401267666 12.381902411 12.360579252 12.337425596 12.312384374 12.285561401 12.256930068 
12.226567263 12.194484286 12.160721492 12.12533579 12.088323108 12.04979393 12.009691584 11.968188316 11.925166443 
11.880868339 11.835106725 11.788202557 11.739890298 11.690577908 11.639912996 11.588398752 11.535587589 11.482085738 
11.427342563 11.372074477 11.315620717 11.258814033 11.200877581 11.142765227 11.083579638 11.024398762 10.96420239 
10.904193176 10.843228246 10.782632642 10.721144276 10.660204632 10.598439833 10.537397461 10.475604079 10.414697748 
10.353123427 10.292587815 10.231478946 10.171543055 10.11114375 10.052029309 9.9925804065 9.9345002836 9.8762384006 
9.8193950438 9.762551687 
pressure 1 101 double
85.523724285 92.84160207 100.15947986 107.13532216 114.09615931 120.72007379 127.31079095 133.57350079 139.78321043 
145.67611544 151.49587488 157.01111456 162.43369734 167.56420879 172.58390005 177.32346666 181.93588522 186.27917417 
190.48112202 194.42371065 198.21304885 201.7514407 205.12698976 208.25862214 211.22008435 213.94332949 216.4912303 
218.80539231 220.94103788 222.84634747 224.57179564 226.06940447 227.38744676 228.47942278 229.39357518 230.08289976 
230.59740088 230.88796839 231.0077831 230.90440335 230.63523063 230.14363427 229.49191797 228.61876477 227.59170626 
226.34459566 224.95016769 223.3376509 221.58461182 219.61620489 217.51411228 215.20030918 212.75953229 210.1118172 
207.34354724 204.3744048 201.29066279 198.01358509 194.6272265 191.05671561 187.38143123 183.53299615 179.58330854 
175.47345526 171.26471032 166.91092389 162.45927703 157.87999441 153.20239104 148.41696359 143.53111372 138.55975831 
133.4841051 128.34784283 123.10152525 117.82210693 112.42491675 107.02473456 101.49706788 95.999052671 90.361856785 
84.78936064 79.064076864 73.440740882 67.649244437 61.998851684 56.16338978 50.509703754 44.652833225 39.019422356 
33.163948303 27.573997294 21.742914294 16.219023323 10.435460827 4.9994338952 -0.71339250985 -6.0407686176 -11.659598473 
-16.858782833 -22.360343184 
crossSection 1 101 double
1.0097206175 1.0105589424 1.0113983118 1.0121994232 1.0129997606 1.0137622414 1.0145217555 1.0152442612 1.0159614148 
1.0166426839 1.0173161695 1.0179550326 1.0185837497 1.0191791392 1.0197621736 1.0203131309 1.0208497366 1.021355419 
1.0218450029 1.0223046881 1.0227467976 1.0231598876 1.0235541998 1.023920223 1.0242665374 1.0245851498 1.0248833819 
1.0251543678 1.0254045449 1.025627817 1.025830075 1.0260056742 1.0261602559 1.0262883507 1.0263956043 1.0264764909 
1.0265368696 1.0265709712 1.0265850334 1.0265729001 1.0265413093 1.0264836181 1.0264071434 1.026304698 1.0261842148 
1.0260379461 1.025874436 1.0256854018 1.0254799534 1.0252493384 1.025003147 1.0247322631 1.0244466304 1.0241369157 
1.0238132493 1.0234662675 1.0231060799 1.0227235186 1.0223284254 1.0219120948 1.0214838128 1.0210356421 1.0205759865 
1.0200980207 1.019608902 1.0191032973 1.0185867169 1.0180557351 1.0175137812 1.0169597823 1.0163946244 1.0158200594 
1.0152339425 1.014641343 1.0140365814 1.0134285497 1.0128075193 1.0121867158 1.0115518478 1.0109209776 1.0102747496 
1.0096365475 1.0089814766 1.0083386908 1.0076773249 1.0070326993 1.0063676093 1.0057238651 1.0050576369 1.0044174521 
1.0037526799 1.0031186681 1.002457947 1.0018326359 1.0011785564 1.0005643645 0.99991950714 0.99931872056 0.99868565225 
0.99810040072 0.99748167194 
