# vtk DataFile Version 4.2
vtk output
ASCII
DATASET STRUCTURED_POINTS
DIMENSIONS 102 2 2
SPACING 0.1 0 0
ORIGIN 0 0 0
CELL_DATA 101
FIELD FieldData 3
velocity 1 101 double
7.1468304511 7.1895928673 7.2360214704 7.2833074556 7.333906414 7.3853947409 7.4398479853 7.4952069713 7.553192735 
7.6120835762 7.6732766907 7.7353565632 7.799430543 7.8643554342 7.9309843537 7.9984115998 8.0672717707 8.1368622873 
8.2076337475 8.2790539488 8.3514217764 8.4243451895 8.4980006516 8.5721092422 8.6467507907 8.7217360196 8.7970701442 
8.8726337793 8.9483757272 9.0242304409 9.100104813 9.1759745912 9.2517158229 9.3273362171 9.4026889541 9.4778072015 
9.5525265792 9.6269016165 9.7007534555 9.7741558489 9.8469167745 9.9191285861 9.9905860837 10.061400691 10.131353109 
10.200574993 10.268831502 10.336276013 10.402656533 10.468149647 10.532484758 10.595862827 10.657993656 10.719103174 
10.778881283 10.837578645 10.894865922 10.95101721 11.005685762 11.059166542 11.111098604 11.161793744 11.2108816 
11.258685114 11.304831036 11.349645944 11.392762152 11.434500375 11.474509012 11.513091283 11.549924406 11.585280218 
11.618879805 11.650947377 11.681265345 11.709991624 11.736989855 11.76233054 11.785980902 11.807900499 11.828184868 
11.846656774 11.86356704 11.878573656 11.89211171 11.90364458 11.913822268 11.921882256 11.928721299 11.933318788 
11.936850651 11.938005775 11.938271481 11.936014393 11.933064268 11.927435429 11.921328775 11.912379284 11.903183965 
11.89097591 11.878767855 
pressure 1 101 double
-273.68991388 -269.35156393 -265.01321398 -260.27436636 -255.50578384 -250.39545392 -245.23108965 -239.77910749 -234.25410723 
-228.49088158 -222.64073223 -216.59702941 -210.45723892 -204.16397722 -197.76979132 -191.25785092 -184.644008 -177.94405659 
-171.14458085 -164.28691447 -157.33494633 -150.34934558 -143.27700701 -136.19260828 -129.03090025 -121.87608213 -114.65481063 
-107.45709523 -100.20482215 -92.99079133 -85.734806319 -78.53003251 -71.29634201 -64.125333299 -56.938663374 -49.824822165 
-42.708631907 -35.67422645 -28.650729189 -21.716877057 -14.807066956 -7.9937294524 -1.2174114616 5.4566021668 12.080780649 
18.597800403 25.052317509 31.395792394 37.664220536 43.818692007 49.885668294 55.836738482 61.687937529 67.422233234 
73.044342949 78.549476323 83.930177144 89.194703871 94.322651839 99.336027525 104.20084151 108.95337692 113.54563021 
118.02844595 122.33966233 126.54464355 130.56729788 134.48704944 138.21457281 141.84237551 145.26916462 148.59893295 
151.72036361 154.74660564 157.55904987 160.27682993 162.77767599 165.18258087 167.37025555 169.45836501 171.33235711 
173.10021974 174.66110352 176.10571897 177.3551761 178.47398491 179.41482325 180.20570568 180.84187287 181.30315818 
181.63974793 181.77023563 181.81348429 181.61247917 181.36974983 180.83711234 180.31686396 179.45307768 178.66481622 
177.47107394 176.42528284 
crossSection 1 101 double
0.96981825369 0.97028595891 0.97075400255 0.97126564105 0.97178089835 0.97233353759 0.97289249926 0.97348311422 0.9740821881 
0.97470768215 0.97534322658 0.97600045114 0.97666880524 0.97735457837 0.97805208915 0.97876321293 0.97948625894 0.98021953582 
0.98096454736 0.9817167954 0.9824802714 0.98324833843 0.98402686016 0.98480763684 0.98559787875 0.98638831059 0.98718704844 
0.9879841466 0.98878826347 0.98958911447 0.99039560478 0.99119737895 0.99200335095 0.99280330968 0.9936059867 0.99440148858 
0.99519820933 0.99598671499 0.99677493322 0.99755400915 0.99833129276 0.99909861405 0.99986264398 1.0006159961 1.0013645651 
1.0021018446 1.0028328559 1.0035520708 1.0042635372 1.0049628059 1.0056528486 1.006330399 1.0069972466 1.0076514143 
1.0082934029 1.0089226287 1.0095382014 1.0101410288 1.0107287362 1.0113038086 1.0118623091 1.0124083665 1.0129364278 
1.0134523035 1.0139488037 1.0144334208 1.0148973504 1.0153497184 1.0157801826 1.0161993936 1.0165956149 1.0169808403 
1.0173421616 1.0176926482 1.0180185361 1.0183336037 1.0186236517 1.0189026894 1.0191566217 1.0193990857 1.0196167608 
1.0198221722 1.020003586 1.0201715296 1.0203168185 1.0204469418 1.0205563855 1.0206483991 1.0207224216 1.0207761005 
1.0208152715 1.0208304577 1.0208354911 1.0208120979 1.02078385 1.0207218677 1.0206613325 1.0205608358 1.020469139 
1.0203302969 1.020208686 
