# vtk DataFile Version 5.1
vtk output
ASCII
DATASET STRUCTURED_POINTS
DIMENSIONS 102 2 2
SPACING 0.1 0 0
ORIGIN 0 0 0
CELL_DATA 101
FIELD FieldData 3
velocity 1 101 double
12.853169549 12.813021794 12.769822614 12.725598081 12.678588945 12.630481753 12.579841719 12.528054787 12.473971918 
12.418716675 12.361388539 12.302884758 12.242518721 12.180994409 12.117807744 12.053499042 11.987718872 11.920869921 
11.852733024 11.783595765 11.713348233 11.64218211 11.570078873 11.49715043 11.423454647 11.349036991 11.274019303 
11.198391437 11.122329083 11.045775097 10.968950894 10.891759013 10.81446021 10.736921703 10.659438702 10.581846666 
10.50447163 10.427119648 10.350145002 10.273325698 10.197042539 10.121046051 10.045742484 9.9708548637 9.8968142912 
9.8233158669 9.750815241 9.6789789633 9.6082870399 9.5383768357 9.4697524488 9.4020216141 9.335711998 9.2704016553 
9.2066408421 9.1439784888 9.0829858061 9.0231839784 8.9651626708 8.9084177453 8.8535537406 8.8000448928 8.7485057326 
8.6983940678 8.6503280155 8.6037558833 8.5592912236 8.5163817226 8.4756262574 8.4364829342 8.3995236808 8.3642304198 
8.3311335087 8.2997546081 8.270565379 8.2431458022 8.2178890888 8.1944548783 8.1731354733 8.15369431 8.1362975962 
8.1208394862 8.1073322204 8.0958302881 8.0861615205 8.0785728856 8.0726749991 8.0689417165 8.0667315675 8.0667816064 
8.0681617502 8.0719099919 8.0767699756 8.0841192086 8.0923369159 8.1031788103 8.1146218419 8.1288378845 8.1433649615 
8.1608273381 8.1782897147 
pressure 1 101 double
263.84557271 260.01543465 256.18529658 252.01225891 247.7972812 243.29329765 238.71422365 233.8924662 228.97036608 
223.84526872 218.60156786 213.18883929 207.64536248 201.96197632 196.14099801 190.20516657 184.12945987 177.9605951 
171.65347395 165.27213794 158.75748855 152.18533449 145.48763311 138.74733711 131.8916521 125.00683561 118.01881248 
111.01395506 103.91978361 96.820125421 89.646488753 82.477922615 75.251927989 68.040880717 60.789972761 53.563276019 
46.315133101 39.099884205 31.882299145 24.705712638 17.546459269 10.435710479 3.3623978884 -3.6555399884 -10.615623422 
-17.514146825 -24.334197217 -31.087242144 -37.741109125 -44.323321068 -50.785679294 -57.17258062 -63.419100936 -69.58725304 
-75.594770435 -81.521927985 -87.26860353 -92.933858177 -98.399332272 -103.78324336 -108.94877779 -114.0334878 -118.88209436 
-123.65142719 -128.16798101 -132.60752134 -136.77885728 -140.87600996 -144.691001 -148.43502962 -151.88464638 -155.26669064 
-158.34404174 -161.35711382 -164.05746708 -166.69642749 -169.01721232 -171.27872629 -173.21951802 -175.10199375 -176.66448082 
-178.16799139 -179.35592642 -180.48211734 -181.30125358 -182.05323838 -182.51125266 -182.89349885 -182.99990246 -183.01811085 
-182.78414954 -182.44512935 -181.88367362 -181.19521661 -180.32064315 -179.29139939 -178.11946443 -176.75882287 -175.30652785 
-173.62450441 -171.90995417 
crossSection 1 101 double
1.0304499984 1.0299980727 1.0295464443 1.0290547211 1.0285584135 1.0280284726 1.0274901163 1.0269236849 1.0263459489 
1.0257449038 1.0251304958 1.0244968616 1.0238485302 1.0231844745 1.0225050119 1.0218128395 1.0211050841 1.0203872288 
1.0196540673 1.0189130828 1.018157451 1.0173960008 1.0166208831 1.01584173 1.0150501567 1.0142561507 1.0134511945 
1.0126452604 1.0118300299 1.0110151541 1.0101927867 1.0093720025 1.0085456548 1.0077220277 1.0068948646 1.0060714765 
1.0052466588 1.0044265915 1.0036072622 1.0027935806 1.0019828498 1.0011785846 1.000379514 0.99958764406 0.99880323043 
0.99802666551 0.99725982419 0.99650138742 0.99575493529 0.99501734657 0.9942939854 0.99357984523 0.99288214546 0.99219391984 
0.99152430503 0.99086431147 0.9902250437 0.98959543866 0.98898860504 0.98839137297 0.98781887359 0.98725581768 0.98671935499 
0.98619208985 0.98569315976 0.98520310602 0.98474299066 0.98429137172 0.98387113403 0.98345897476 0.98307945485 0.98270758237 
0.98236939572 0.98203844215 0.98174197947 0.98145238659 0.98119781538 0.98094984097 0.98073710861 0.98053083444 0.98035967277 
0.98019501396 0.98006494512 0.97994166064 0.97985200416 0.97976970839 0.97971958927 0.97967776417 0.97966612204 0.97966412979 
0.97968972882 0.97972682471 0.97978826432 0.97986360947 0.97995933585 0.98007200962 0.9802003278 0.98034933957 0.98050842633 
0.98069272633 0.98088064378 
