# vtk DataFile Version 5.1
vtk output
ASCII
DATASET STRUCTURED_POINTS
DIMENSIONS 102 2 2
SPACING 0.1 0 0
ORIGIN 0 0 0
CELL_DATA 101
FIELD FieldData 3
velocity 1 101 double
13 12.985517452 12.967684126 12.948445998 12.926066486 12.902208142 12.875412614 12.847079187 12.816005244 
12.783351104 12.748144601 12.711333035 12.672148713 12.63135177 12.588353717 12.54375215 12.497114135 12.448897413 
12.398803088 12.347169429 12.293812431 12.238968832 12.182552774 12.124714995 12.065453376 12.004845862 11.942961865 
11.879817592 11.815543783 11.750104009 11.683681919 11.616195833 11.547875429 11.478599673 11.408638709 11.337836785 
11.266500036 11.194441572 11.121999935 11.048959835 10.975689312 10.901946771 10.828127328 10.753964728 10.679879036 
10.605580734 10.531512808 10.457363811 10.383597551 10.309882116 10.23669977 10.163699925 10.091380492 10.019374505 
9.948192097 9.8774529157 9.8076750968 9.7384687853 9.6703549165 9.6029391025 9.5367387145 9.4713610785 9.4073122987 
9.344209124 9.2825371826 9.221931989 9.162847827 9.1049501103 9.0486491098 8.993653205 8.9403140619 8.8883981454 
8.8381819023 8.7895071435 8.7425563986 8.697266268 8.6537045692 8.6119243102 8.5718557408 8.5336920069 8.497200964 
8.4627416186 8.4298927882 8.3992068567 8.3700453828 8.3431831486 8.3177349899 8.2947282213 8.2730006849 8.2538629809 
8.2358454204 8.220572658 8.2062373241 8.1948081887 8.184111218 8.1764877969 8.1693703242 8.1654987455 8.1618881214 
8.1616992204 8.1615103193 
pressure 1 101 double
277.54602547 276.05939602 274.57276658 272.67963055 270.74446627 268.45320203 266.08502689 263.4048541 260.6196895 
257.56078588 254.37511519 250.94869336 247.37946111 243.59781573 239.66245032 235.53898341 231.2554344 226.80466463 
222.19144711 217.42900763 212.50524768 207.44787521 202.23335198 196.89886853 191.41404973 185.82133732 180.08740578 
174.25637392 168.295243 162.24678891 156.08110488 149.83706594 143.49019604 137.07329372 130.56929923 124.0030735 
117.36666731 110.67540101 103.93188935 97.14052195 90.315730353 83.449761103 76.569944631 69.655325091 62.747063592 
55.810079942 48.90015906 41.967304951 35.082584082 28.180425057 21.347693712 14.502724507 7.748548913 0.98704521415 
-5.6623927939 -12.314526261 -18.833595798 -25.350978701 -31.714769462 -38.0726985 -44.257190909 -50.43178928 -56.414022486 
-62.382383825 -68.14061882 -73.880943328 -79.394818496 -84.886539038 -90.137215648 -95.361111727 -100.3314071 -105.26970482 
-109.94421109 -114.58066764 -118.94585427 -123.26582581 -127.31012424 -131.30061653 -135.01448574 -138.6641871 -142.04015944 
-145.3394561 -148.37216271 -151.31313708 -153.99931285 -156.57572575 -158.91419371 -161.12145205 -163.11308744 -164.94819917 
-166.59587373 -168.05739207 -169.36589919 -170.45385869 -171.42982011 -172.14566711 -172.79742189 -173.14394251 -173.48141869 
-173.46266745 -173.49723718 
crossSection 1 101 double
1.0320689793 1.03189312 1.0317173057 1.0314934813 1.0312647633 1.030994056 1.0307143738 1.0303979819 1.0300693502 
1.0297086001 1.0293331012 1.0289294539 1.0285092354 1.0280642895 1.0276015635 1.0271170553 1.0266141002 1.0260919021 
1.0255510648 1.0249931817 1.0244168795 1.0238254446 1.0232161678 1.0225934371 1.0219537494 1.021302096 1.0206346349 
1.0199565416 1.0192640173 1.0185620691 1.0178472619 1.0171241374 1.0163898934 1.0156483556 1.0148975813 1.0141404675 
1.0133761222 1.0126063329 1.0118314202 1.011051907 1.0102694644 1.0094832171 1.0086963044 1.0079063376 1.0071180236 
1.0063273623 1.0055407109 1.0047523753 1.00397043 1.00318742 1.0024131881 1.0016384679 1.0008749038 1.0001113854 
0.99936137344 0.9986119013 0.99787823867 0.99714557376 0.99643095356 0.99571775848 0.9950247529 0.9943335775 0.99366462181 
0.99299788982 0.9923552671 0.9917152639 0.99110109092 0.9904899526 0.98990616696 0.98932587087 0.98877421958 0.98822657653 
0.98770860626 0.98719525435 0.98671230334 0.98623470362 0.98578789548 0.9853473293 0.98493756869 0.98453513685 0.9841631071 
0.98379973067 0.98346589329 0.98314231597 0.9828469121 0.98256370413 0.98230675782 0.98206432103 0.98184564446 0.98164421844 
0.98146341876 0.98130308784 0.98115957582 0.98104027659 0.98093327692 0.98085480606 0.98078336915 0.98074539123 0.98070840668 
0.98071046161 0.98070667316 
