# vtk DataFile Version 5.1
vtk output
ASCII
DATASET STRUCTURED_POINTS
DIMENSIONS 102 2 2
SPACING 0.1 0 0
ORIGIN 0 0 0
CELL_DATA 101
FIELD FieldData 3
velocity 1 101 double
12.427050983 12.364414193 12.299278951 12.233607806 12.165771947 12.09733734 12.027042821 11.956120263 11.88361718 
11.810486361 11.736032451 11.660976828 11.584836814 11.508143169 11.430587981 11.352545922 11.273851823 11.194753207 
11.115200828 11.035339081 10.955212384 10.874881733 10.794466905 10.713961506 10.633545789 10.553158762 10.473029225 
10.393051613 10.313493878 10.234213522 10.155510442 10.077210802 9.9996411172 9.9226000422 9.8464370056 9.7709254768 
9.6964354808 9.6227163406 9.5501575444 9.4784842296 9.4081052099 9.338720508 9.2707589454 9.2038937924 9.1385752091 
9.0744475457 9.0119841096 8.9507978135 8.8913872229 8.8333311332 8.7771555963 8.7224026433 8.6696279634 8.6183344178 
8.5691091961 8.5214140464 8.4758690103 8.4318934776 8.3901409418 8.3499881364 8.3121216014 8.2758763251 8.2419702153 
8.209698909 8.1798084515 8.1515592857 8.1257205286 8.1015236317 8.0797535976 8.0596214154 8.0419183863 8.0258461618 
8.0121900892 8.0001564522 7.9905094837 7.9824771376 7.976784253 7.9727007433 7.9708904907 7.9706890405 7.9726743635 
7.97627476 7.9819539062 7.9892634217 7.9985209237 8.0094352556 8.0221429748 8.0365471882 8.0525654128 8.0703348714 
8.0895134607 8.1105147317 8.1326942979 8.1567860187 8.1817991392 8.2088328346 8.2365052865 8.2663261291 8.2964781396 
8.328925644 8.3613731483 
pressure 1 101 double
226.30407954 220.33128424 214.35848895 208.13664508 201.87713778 195.42444886 188.9068924 182.24301185 175.49588324 
168.64178779 161.69343584 154.67128849 147.54998315 140.38299153 133.11695969 125.82923317 118.446678 111.06308488 
103.59218756 96.13821283 88.607116611 81.108720127 73.545497271 66.028971989 58.461574703 50.95340462 43.409601378 
35.936318938 28.443617758 21.031660713 13.617221107 6.2927890599 -1.016675523 -8.227764432 -15.406091794 -22.478543316 
-29.500233408 -36.409417807 -43.249747386 -49.971837118 -56.606976217 -63.119079418 -69.526207698 -75.806496089 -81.963917218 
-87.991747011 -93.878999258 -99.635023633 -105.23298501 -110.69925674 -115.99024315 -121.15030607 -126.11816104 -130.95712916 
-135.58730405 -140.0919272 -144.37155083 -148.53026604 -152.448203 -156.2511709 -159.79806804 -163.23719383 -166.40551463 
-169.4744534 -172.25850017 -174.95264658 -177.34857064 -179.66503324 -181.67083348 -183.60839409 -185.22390444 -186.78296337 
-188.00982985 -189.19233773 -190.0339859 -190.84336343 -191.30495714 -191.74600379 -191.83439606 -191.91318934 -191.63686637 
-191.36065314 -190.72967221 -190.10675375 -189.13267582 -188.17228854 -186.86810611 -185.58029973 -183.9603605 -182.35587572 
-180.43580228 -178.52595003 -176.32255562 -174.11910008 -171.65030034 -169.16534774 -166.45006798 -163.69596358 -160.75404109 
-157.74327631 -154.59535684 
crossSection 1 101 double
1.0260331946 1.0253331068 1.0246337354 1.0239059627 1.0231745667 1.0224214184 1.0216615426 1.0208854825 1.0201006281 
1.0193042573 1.0184978864 1.0176839231 1.0168594622 1.0160307232 1.0151915657 1.0143509464 1.0135004531 1.0126509097 
1.0117924078 1.0109369382 1.010073719 1.0092153457 1.0083506595 1.0074924127 1.0066294636 1.0057743638 1.0049163026 
1.0040673449 1.0032172609 1.0023773994 1.0015383114 1.0007104435 0.99988529032 0.99907224225 0.99826387258 0.99746838497 
0.99667954712 0.99590426155 0.99513759302 0.99438503903 0.99364305624 0.9929156393 0.9922007276 0.99150071786 0.99081512203 
0.99014464408 0.98949045936 0.98885148313 0.98823064698 0.98762497976 0.98703926444 0.98646854415 0.98591955025 0.98538524005 
0.98487439095 0.98437777517 0.98390631251 0.98344849409 0.98301747436 0.98259937355 0.98220966568 0.98183202031 0.98148430435 
0.98114767143 0.9808424382 0.98054719693 0.98028474869 0.98003110478 0.97981155675 0.97959954804 0.9794228308 0.97925233401 
0.97911819668 0.9789889353 0.9788969493 0.97880850248 0.978758066 0.97870987826 0.97870022115 0.97869161288 0.97872180203 
0.97875198059 0.97882092566 0.97888899692 0.9789954564 0.9791004366 0.97924302418 0.97938385192 0.97956104311 0.97973659127 
0.97994673031 0.98015581779 0.98039712492 0.98063852788 0.98090910696 0.98118156949 0.98147941604 0.98178165994 0.98210466982 
0.98243540335 0.98278138205 
