# vtk DataFile Version 5.1
vtk output
ASCII
DATASET STRUCTURED_POINTS
DIMENSIONS 102 2 2
SPACING 0.1 0 0
ORIGIN 0 0 0
CELL_DATA 101
FIELD FieldData 3
velocity 1 101 double
10 10.089073325 10.177237304 10.264232212 10.350042957 10.434685483 10.517920039 10.599956773 10.680406418 
10.759604425 10.837074348 10.913220806 10.987529916 11.060431552 11.131412403 11.200894784 11.268393553 11.334300315 
11.398176799 11.46036885 11.520496451 11.578851197 11.635116889 11.689527497 11.741831758 11.792206477 11.840463183 
11.886724738 11.930861022 11.972946069 12.012902156 12.050760813 12.086489825 12.120085256 12.151553009 12.180861072 
12.208045862 12.233054799 12.255947187 12.276657355 12.295259958 12.311683597 12.326010884 12.338171908 12.348250004 
12.356183815 12.362050313 12.365803632 12.367507413 12.367138114 12.364739175 12.36031613 12.353885419 12.34548833 
12.335107579 12.322826811 12.308588368 12.292524763 12.274531423 12.254796092 12.233160917 12.209875015 12.184721137 
12.158015601 12.129476011 12.099491267 12.067708583 12.034594207 11.999720415 11.963634756 11.925830923 11.886940662 
11.846376623 11.804856292 11.761710293 11.717741722 11.67220004 11.62597175 11.57822826 11.52993479 11.480190508 
11.430031674 11.378494251 11.326674343 11.273557525 11.220284432 11.165807483 11.111291763 11.055678851 11.000132731 
10.943612278 10.887248607 10.830052613 10.773083764 10.715447091 10.658083824 10.600243461 10.542693756 10.484888055 
10.427355933 10.369823812 
pressure 1 101 double
-1.1871743219 7.1833831247 15.553940571 23.710601497 31.865342534 39.788183115 47.701322681 55.371288129 63.019515042 
70.418455809 77.780819462 84.891546761 91.949320696 98.755671577 105.49220575 111.97910939 118.37968091 124.53321971 
130.58488933 136.39235073 142.08382999 147.53374655 152.8552784 157.93745567 162.88070983 167.58624226 172.14422532 
176.46550161 180.63248099 184.56318056 188.33462093 191.86970349 195.24221411 198.37790411 201.34919528 204.08296312 
206.65181024 208.98235169 211.14856529 213.07578021 214.84018081 216.36515209 217.729549 218.85452193 219.82169499 
220.5500577 221.12374113 221.46000603 221.64487393 221.59465994 221.39631291 220.96632814 220.39128073 219.58930519 
218.64497382 217.47984148 216.17453253 214.65611225 212.99901011 211.13818461 209.13933947 206.9479816 204.61829694 
202.10924238 199.46046191 196.64747763 193.69217156 190.58991925 187.34146979 183.96546337 180.43804941 176.80460595 
173.01318701 169.13937027 165.0996696 161.00322555 156.73171254 152.43099626 147.94486823 143.4587617 138.7759252 
134.12374556 129.26279738 124.46419531 119.44440359 114.51925168 109.3605371 104.32880826 99.051725863 93.933361807 
88.559083626 83.373853891 77.92415268 72.691504716 67.18873902 61.927640168 56.394740889 51.123513362 45.583971804 
40.320122136 34.797979311 
crossSection 1 101 double
0.99986605518 1.000811051 1.0017573872 1.002680833 1.0036053385 1.0045047786 1.0054043247 1.0062773812 1.007149096 
1.0079934766 1.0088347374 1.0096482451 1.0104566681 1.0112372122 1.0120106407 1.0127562478 1.0134927397 1.0142015642 
1.0148993799 1.0155697134 1.0162273041 1.0168575836 1.0174735814 1.0180623953 1.0186356042 1.0191816973 1.0197110856 
1.0202133625 1.0206980565 1.0211555836 1.0215948624 1.0220068689 1.0224001603 1.0227660381 1.0231129148 1.0234322183 
1.0237323954 1.02400484 1.0242581719 1.0244836327 1.0246901115 1.0248686214 1.0250283743 1.0251601219 1.0252734097 
1.0253587372 1.0254259517 1.0254653525 1.0254870148 1.0254811308 1.0254578893 1.025407508 1.0253401356 1.0252461875 
1.0251355795 1.0249991341 1.0248463053 1.024668568 1.0244746501 1.0242569577 1.024023196 1.0237670123 1.0234947627 
1.0232016732 1.0228923984 1.0225641046 1.0222193711 1.0218576839 1.0214791576 1.0210859905 1.020675433 1.0202527935 
1.0198120582 1.0193620395 1.0188930674 1.0184178383 1.0179226534 1.0174244478 1.0169051534 1.0163862589 1.0158450327 
1.0153077778 1.0147468685 1.0141936092 1.0136153317 1.0130484372 1.012455169 1.0118770065 1.0112711839 1.0106841022 
1.0100682169 1.0094745298 1.0088511258 1.0082530943 1.0076247649 1.0070245791 1.0063939647 1.0057937252 1.0051635111 
1.0045652102 1.0039381251 
