# vtk DataFile Version 5.1
vtk output
ASCII
DATASET STRUCTURED_POINTS
DIMENSIONS 102 2 2
SPACING 0.1 0 0
ORIGIN 0 0 0
CELL_DATA 101
FIELD FieldData 3
velocity 1 101 double
12.427050983 12.46591406 12.501530277 12.535409007 12.56609865 12.594995236 12.620779981 12.644710292 12.665618273 
12.684610619 12.70067708 12.714771212 12.726039085 12.735285419 12.741805812 12.746264846 12.748097452 12.747839371 
12.745052815 12.740157241 12.732829375 12.72338524 12.711603386 12.697708914 12.681570082 12.663332828 12.642943899 
12.620480854 12.595958743 12.569396461 12.54086825 12.510342991 12.477946032 12.443603901 12.40748589 12.369482956 
12.329801961 12.288304339 12.245228786 12.200412677 12.154121273 12.106172935 12.056854528 12.005970189 11.953823548 
11.900209222 11.84544274 11.78931396 11.732145256 11.673726707 11.614382129 11.553907168 11.492621196 11.430331267 
11.367345803 11.303489728 11.239053271 11.173886432 11.108253151 11.042036548 10.975465242 10.908464444 10.841217399 
10.773701381 10.706043144 10.638283028 10.570479082 10.502746787 10.435062177 10.367628993 10.300326885 10.23346198 
10.166802197 10.100771081 10.035008621 9.9700715774 9.9054551423 9.8418656525 9.7786362052 9.7166393769 9.6550287581 
9.5948597819 9.5350894018 9.4769720521 9.419251683 9.3633968814 9.3079235725 9.2545280294 9.2014851626 9.1507301101 
9.1002866152 9.0523366449 9.0046463879 8.9596484018 8.9148497595 8.872932042 8.831147671 8.792419085 8.7537558914 
8.7183052023 8.6828545131 
pressure 1 101 double
225.02867845 228.47113406 231.91358968 234.91138266 237.87547475 240.42978156 242.91894644 245.03127054 247.05013165 
248.72247008 250.2766453 251.51161944 252.60757681 253.40853148 254.05348703 254.4245634 254.62641412 254.57260176 
254.33988716 253.86706027 253.20894616 252.32388842 251.25016764 249.96058918 248.48169437 246.79624374 244.92326829 
242.85154118 240.5962651 238.14881128 235.52372917 232.71205828 229.73040723 226.56699349 223.2427789 219.7410648 
216.08908264 212.26348087 208.29933488 204.16522796 199.90534064 195.47907725 190.94069355 186.23958077 181.44076338 
176.4830537 171.44266933 166.24754147 160.98523716 155.5727698 150.10893873 144.50007615 138.85581249 133.07232147 
127.26936391 121.33378124 115.39444509 109.33001511 103.27711305 97.107715094 90.964466905 84.714532409 78.504464204 
72.198883755 65.945717532 59.609738115 53.337272701 46.996385785 40.728370493 34.408191743 28.168194331 21.894335933 
15.7056067 9.5035434658 3.3888775321 -2.7161919062 -8.7345919142 -14.717887392 -20.618545885 -26.455850005 -32.21814771 
-37.885950687 -43.490246113 -48.965889735 -54.393630266 -59.655449665 -64.889269743 -69.916731813 -74.940535779 -79.714373321 
-84.51340055 -89.015741502 -93.576611654 -97.791103077 -102.10183945 -106.0137663 -110.06379544 -113.66019457 -117.44032061 
-120.71009075 -124.21244305 
crossSection 1 101 double
1.0258836411 1.0262873783 1.0266913539 1.0270433421 1.0273915514 1.0276917629 1.0279844447 1.0282329148 1.0284704752 
1.0286673224 1.0288503116 1.0289957527 1.0291248479 1.0292192094 1.0292952019 1.0293389282 1.0293627147 1.0293563732 
1.02932895 1.0292732351 1.0291956948 1.0290914293 1.0289649594 1.0288130951 1.0286389778 1.0284405956 1.0282202085 
1.0279765174 1.0277113345 1.0274236708 1.0271152636 1.026785089 1.0264351276 1.0260640279 1.0256742816 1.0252639645 
1.0248363018 1.0243885944 1.0239249828 1.0234418291 1.0229443332 1.022427791 1.0218985706 1.0213508075 1.0207921142 
1.0202154034 1.0196295763 1.0190262918 1.0184157522 1.0177883626 1.017155607 1.0165066692 1.0158542622 1.0151864136 
1.0145169788 1.013832929 1.0131491389 1.0124516604 1.0117562257 1.0110481436 1.0103438011 1.0096279817 1.0089174815 
1.0081968208 1.0074829127 1.0067603232 1.0060457426 1.0053241402 1.0046115935 1.0038938836 1.0031860333 1.0024750964 
1.0017745462 1.0010732231 1.0003825036 0.999693581 0.99901513491 0.99834133049 0.99767749959 0.99702144739 0.99637445962 
0.99573869583 0.99511065388 0.99449760292 0.9938904741 0.99330243525 0.99271804304 0.99215717763 0.99159719497 0.99106551422 
0.99053145889 0.99003081239 0.98952404453 0.98905610935 0.98857783138 0.98814410169 0.98769536076 0.98729713797 0.98687883098 
0.98651721412 0.98613009551 
