# vtk DataFile Version 5.1
vtk output
ASCII
DATASET STRUCTURED_POINTS
DIMENSIONS 102 2 2
SPACING 0.1 0 0
ORIGIN 0 0 0
CELL_DATA 101
FIELD FieldData 3
velocity 1 101 double
7.5729490169 7.5316583808 7.493959865 7.4580900765 7.4258621163 7.395497147 7.3687840703 7.3439744519 7.3227923629 
7.3035556682 7.2878924176 7.2742140734 7.2640296546 7.2558640761 7.2510914032 7.2483634283 7.2489094466 7.2515160381 
7.2572631181 7.2650752924 7.2758828565 7.2887477952 7.3044541275 7.3221974231 7.3426216146 7.3650496021 7.3899935877 
7.4168957155 7.4461463606 7.4772975572 7.5106287575 7.5457917542 7.5829665158 7.6218940925 7.6626665634 7.7051036893 
7.7492211174 7.7949069647 7.842111564 7.8907813784 7.9408120859 7.992198904 8.0447930155 8.0986292228 8.1535239 
8.2095426283 8.2664762706 8.3244126379 8.3831261164 8.4427183153 8.5029560694 8.5639463104 8.6254573084 8.6875926285 
8.7501311974 8.8131641436 8.8764906723 8.9401798735 9.004061396 9.0681720324 9.1323826987 9.1966868832 9.2610083257 
9.3252854063 9.38950701 9.4535438072 9.517462891 9.5810538807 9.6444757989 9.7074232505 9.7701614226 9.8322755033 
9.8941513797 9.9552502347 10.016093205 10.076003023 10.135650277 10.194205347 10.25250169 10.309544461 10.366342098 
10.421723246 10.476881534 10.530460038 10.583845222 10.635488461 10.68697339 10.736557265 10.786021103 10.833430173 
10.880758117 10.925885762 10.970968761 11.013717376 11.056451868 11.096733064 11.137020744 11.174755579 11.212503196 
11.247622402 11.282741609 
pressure 1 101 double
-232.33894397 -236.09649897 -239.85405398 -243.10500868 -246.33064441 -249.06793142 -251.75466182 -253.97381544 -256.11811806 
-257.81736981 -259.41908808 -260.59940535 -261.66162462 -262.32669824 -262.85559535 -263.01178205 -263.01645 -262.67267569 
-262.16492591 -261.33255584 -260.32670182 -259.01938339 -257.53200991 -255.76549401 -253.81521639 -251.6071627 -249.21438087 
-246.58415224 -243.77080396 -240.73925471 -237.52857193 -234.1178344 -230.53410651 -226.76737978 -222.83572654 -218.73707061 
-214.48322736 -210.07736581 -205.52748251 -200.83961585 -196.0200713 -191.07570313 -186.01293491 -180.837712 -175.55806225 
-170.17762989 -164.70720673 -159.14707958 -153.51163359 -147.79708238 -142.02189743 -136.17785119 -130.28764858 -124.33861195 
-118.35746699 -112.32745185 -106.27872173 -100.19119207 -94.097454085 -87.97528298 -81.858282137 -75.723719428 -69.604324655 
-63.478973872 -57.377142073 -51.281945053 -45.216692465 -39.171920017 -33.16130049 -27.186547424 -21.247637366 -15.361820235 
-9.51071011 -3.7320660022 2.0161415542 7.6700568539 13.301242053 18.81355818 24.314571881 29.669111857 35.027755726 
40.20904923 45.414047753 50.407351068 55.448314866 60.239638782 65.107018629 69.683165407 74.368196449 78.716806718 
83.211442513 87.321052729 91.617888887 95.477999695 99.570187093 103.17134267 107.05249048 110.38636851 114.05043771 
117.10994913 120.55113752 
crossSection 1 101 double
0.97428997767 0.97388235676 0.9734749916 0.97312275434 0.97277344927 0.97247717513 0.97218650467 0.9719465184 0.97171471116 
0.9715310745 0.97135802585 0.97123053469 0.97111582127 0.97104400758 0.97098690372 0.97097004154 0.97096953759 0.97100665258 
0.97106147479 0.97115135658 0.97125998835 0.97140120537 0.97156190946 0.97175282546 0.97196366685 0.97220245884 0.97246132778 
0.9727460048 0.97305063976 0.97337906216 0.97372707229 0.97409697111 0.97448585808 0.97489485417 0.97532203291 0.97576765567 
0.97623047409 0.97671017933 0.9772059367 0.9777171237 0.97824308776 0.97878311517 0.97933653782 0.97990273842 0.98048087007 
0.98107056415 0.98167066678 0.9822811743 0.98290053322 0.98352918451 0.984165119 0.9848092642 0.985459137 0.98611615419 
0.98677738006 0.98744468208 0.98811473543 0.98878977567 0.98946619739 0.99014647446 0.99082687794 0.99150993945 0.99219201603 
0.99287546156 0.99355698526 0.99423846873 0.99491730043 0.99559453191 0.9962686229 0.99693937018 0.99760676513 0.9982688551 
0.99892769444 0.99957901442 1.000227536 1.0008660353 1.0015025756 1.0021262675 1.0027492615 1.0033562254 1.0039642064 
1.0045525912 1.0051441888 1.0057122166 1.0062861547 1.0068321257 1.0073872183 1.0079095164 1.008444663 1.0089417635 
1.0094559429 1.00992642 1.010418683 1.0108612199 1.0113306805 1.0117440799 1.0121899052 1.0125731013 1.0129945006 
1.0133465722 1.0137427844 
