# vtk DataFile Version 5.1
vtk output
ASCII
DATASET STRUCTURED_POINTS
DIMENSIONS 102 2 2
SPACING 0.1 0 0
ORIGIN 0 0 0
CELL_DATA 101
FIELD FieldData 3
velocity 1 101 double
9.0729490169 8.9928079005 8.9142019323 8.8371026262 8.7618167293 8.6880538821 8.6163399124 8.5461898604 8.4782862734 
8.4120053503 8.3481346329 8.2859575333 8.2263238812 8.1684621344 8.1132494017 8.0598900119 8.0092599567 7.9605642529 
7.9146550987 7.8707578314 7.8296831572 7.7906918674 7.7545398328 7.720534513 7.6893674177 7.6604004691 7.6342546417 
7.6103511257 7.5892371269 7.5703953012 7.5542984225 7.5404905429 7.5293715759 7.520544939 7.5143411859 7.5104193848 
7.5090458793 7.5099302372 7.5132811417 7.5188522903 7.5268024333 7.5369220007 7.5493285196 7.5638408941 7.5805449481 
7.5992790835 7.6201076058 7.6428788395 7.667646296 7.6942581515 7.7227682809 7.7530142325 7.7850617415 7.8187269195 
7.8540991132 7.8909619372 7.9294402656 7.9692739916 8.0106354996 8.0532096737 8.0972283431 8.1423101551 8.1887581339 
8.2361136691 8.2847623808 8.3341577716 8.384778904 8.4359813825 8.4883477566 8.5411266133 8.5950129373 8.6491403869 
8.7043239001 8.7595758649 8.8158368771 8.8719936916 8.9291160255 8.9859630723 9.0437344175 9.1010626981 9.1592748888 
9.2168815337 9.2753307607 9.3330194857 9.3915064527 9.449087965 9.5074180006 9.5647103593 9.6226934954 9.6795224277 
9.7369734572 9.7931726308 9.8499111561 9.9053224089 9.9611728904 10.015646417 10.070438233 10.123832727 10.177400258 
10.229583001 10.281765744 
pressure 1 101 double
-89.295262851 -96.783697532 -104.27213221 -111.47167721 -118.66446327 -125.55088585 -132.41873053 -138.96839471 -145.4841235 
-151.67435975 -157.81301575 -163.62245416 -169.3614062 -174.77027288 -180.08932356 -185.07969964 -189.96118582 -194.5172283 
-198.94610735 -203.05423133 -207.01814806 -210.66716998 -214.15650027 -217.33774226 -220.3456107 -223.05296676 -225.57523663 
-227.80520185 -229.84043717 -231.59210176 -233.14150181 -234.41651229 -235.48382013 -236.28631056 -236.87769773 -237.21419401 
-237.33812408 -237.21742512 -236.88449918 -236.31753846 -235.54032601 -234.54001752 -233.33287617 -231.91394846 -230.29283588 
-228.47165791 -226.45393953 -224.24834184 -221.8525973 -219.28169163 -216.52752294 -213.61152327 -210.51936721 -207.27941462 
-203.87036171 -200.32835513 -196.62397701 -192.80241151 -188.82459846 -184.74641222 -180.51722219 -176.20565292 -171.74717301 
-167.22562437 -162.55984558 -157.85176355 -153.00046949 -148.12922853 -143.11389841 -138.10269666 -132.94442313 -127.81618601 
-122.53560776 -117.31289902 -111.93014825 -106.63508742 -101.16975219 -95.823937229 -90.295038559 -84.919472396 -79.34545594 
-73.960475847 -68.359217738 -62.984426405 -57.373252739 -52.027450161 -46.423169442 -41.124284799 -35.54323256 -30.308255465 
-24.766350021 -19.611260821 -14.124068882 -9.0637679681 -3.6465785827 1.3051850448 6.6372799888 11.467980294 16.700001091 
21.398405754 26.51539783 
crossSection 1 101 double
0.98999974299 0.98916793144 0.9883371678 0.98753943986 0.9867434249 0.98598221623 0.98522393804 0.98450160474 0.98378380196 
0.98310258387 0.98242774055 0.981789729 0.98116006854 0.98056717837 0.97998465726 0.97943860312 0.97890490531 0.97840718206 
0.97792371449 0.97747558165 0.97704347153 0.97664594162 0.97626603563 0.97591986635 0.97559273216 0.97529842218 0.97502435227 
0.97478214041 0.97456115826 0.97437102587 0.97420289442 0.97406457069 0.97394880292 0.97386177272 0.97379764416 0.97376115816 
0.97374772105 0.97376080783 0.97379690666 0.97385838628 0.97394267447 0.97405117338 0.97418213066 0.97433609745 0.97451204784 
0.97470976954 0.97492889953 0.97516851829 0.97542889494 0.97570842464 0.97600801351 0.9763253562 0.97666203876 0.97701500069 
0.97738659111 0.97777289823 0.97817715938 0.97859447205 0.97902913058 0.97947505768 0.97993781808 0.98040993014 0.98089848766 
0.98139432928 0.9819063817 0.98242348308 0.98295674126 0.98349262898 0.98404482603 0.98459703316 0.98516593241 0.98573200789 
0.98631540941 0.98689292706 0.98748867281 0.98807523981 0.98868121744 0.98927448255 0.98988862773 0.99048628937 0.99110658673 
0.99170640097 0.99233088361 0.99293067227 0.99355741989 0.99415507868 0.99478221443 0.9953757214 0.99600140734 0.99658883153 
0.99721126304 0.99779077345 0.99840817245 0.99897804726 0.99958865462 1.0001472906 1.0007493577 1.00129528 1.0018870599 
1.0024189311 1.0029986695 
