# vtk DataFile Version 5.1
vtk output
ASCII
DATASET STRUCTURED_POINTS
DIMENSIONS 102 2 2
SPACING 0.1 0 0
ORIGIN 0 0 0
CELL_DATA 101
FIELD FieldData 3
velocity 1 101 double
10 9.9119644264 9.8242244466 9.7376074052 9.6516208015 9.5667536578 9.4828120402 9.4000179409 9.3184096602 
9.2380018938 9.1590094943 9.0812897395 9.0051874425 8.9304439468 8.8574952006 8.7860009386 8.7164560707 8.6484669297 
8.5825609364 8.5183139772 8.4562644854 8.3959763246 8.3379817554 8.2818471098 8.228085073 8.1762755028 8.1269014448 
8.0795643245 8.0347104476 7.9919681875 7.9517426527 7.9136921848 7.8781786034 7.8448911397 7.8141483525 7.7856694156 
7.7597315521 7.7360812705 7.7149580754 7.6961317303 7.6798091388 7.6657779436 7.6542188826 7.644930972 7.6380763616 
7.633457963 7.6312278897 7.6311846502 7.6334796796 7.6378981183 7.6446007187 7.6533497749 7.6643258195 7.6772584685 
7.6923587879 7.7093136964 7.7283756532 7.7491788509 7.7720279104 7.7964944543 7.8229457294 7.850881342 7.8807410925 
7.9119437573 7.9450108258 7.9792723267 8.0153394994 8.0524468929 8.0913021745 8.1310391868 8.1724669824 8.2146153252 
8.2583975255 8.3027381272 8.3486550948 8.394969245 8.442800704 8.4908711093 8.5403969401 8.5900086926 8.6410096389 
8.6919510962 8.7442093893 8.796272969 8.8495728784 8.902555767 8.9566840857 9.0103888637 9.0651353379 9.1193705223 
9.1745282362 9.2291087406 9.2844744667 9.3392219803 9.3945965047 9.4493397904 9.5045282242 9.5591033366 9.6139154226 
9.6681658456 9.7224162687 
pressure 1 101 double
-1.8095217659 -10.044023371 -18.278524976 -26.370371423 -34.469619524 -42.392942452 -50.323674439 -58.052087331 -65.782234064 
-73.28918853 -80.787950688 -88.047077058 -95.285029135 -102.27046064 -109.21967541 -115.90635475 -122.54054104 -128.90450762 
-135.19915445 -141.21781042 -147.15033087 -152.80268369 -158.35255257 -163.61943203 -168.7683118 -173.63255928 -178.36440962 
-182.81103801 -187.11220518 -191.12852787 -194.98781089 -198.56353909 -201.97223055 -205.09953862 -208.05143898 -210.72499801 
-213.21640302 -215.43338363 -217.46304526 -219.223091 -220.79215319 -222.09732657 -223.20923746 -224.063941 -224.72434409 
-225.13521918 -225.35182611 -225.3276327 -225.11008065 -224.66156091 -224.02125787 -223.16098707 -222.11094831 -220.85317596 
-219.40785487 -217.76833926 -215.94345578 -213.93929469 -211.75166423 -209.4011243 -206.86849 -204.19083707 -201.33170781 
-198.34703996 -195.1805364 -191.90962139 -188.45533194 -184.91945002 -181.1972984 -177.41809143 -173.44821707 -169.44754436 
-165.25019683 -161.04999794 -156.64544598 -152.2676105 -147.67606633 -143.14231022 -138.38386928 -133.71561759 -128.81021368 
-124.02848906 -118.99586465 -114.1211812 -108.98087234 -104.03313427 -98.804469314 -93.802874136 -88.504985256 -83.467931108 
-78.119777299 -73.064774365 -67.685174374 -62.628760516 -57.236433874 -52.194094803 -46.807708889 -41.79380351 -36.432024342 
-31.459716118 -26.141260347 
crossSection 1 101 double
0.9997958486 0.99886761596 0.9979406754 0.99703104962 0.99612183664 0.99523357575 0.99434567352 0.993481565 0.9926183889 
0.99178121151 0.99094600465 0.99013849285 0.98933431884 0.98855912984 0.98778886356 0.98704854687 0.98631486414 0.98561183379 
0.9849172004 0.98425370995 0.9836003709 0.98297849124 0.98236846066 0.98179006074 0.981225113 0.98069184363 0.98017350604 
0.97968678675 0.97921633422 0.97877734325 0.97835579506 0.97796546246 0.97759358133 0.97725258508 0.97693087864 0.9766396437 
0.97636836829 0.97612706847 0.97590623518 0.97571479757 0.97554418046 0.97540229225 0.97528143844 0.97518855582 0.97511679736 
0.97507215626 0.9750486234 0.97505125181 0.97507488745 0.97512361895 0.97519319398 0.97528668232 0.97540081157 0.97553754585 
0.97569470435 0.97587302476 0.97607156403 0.97628967774 0.97652784196 0.97678383904 0.97705978068 0.97735164993 0.97766344484 
0.97798908923 0.97833475085 0.97869200268 0.97906949529 0.97945613077 0.97986338163 0.98027713499 0.98071204521 0.98115062234 
0.98161107644 0.98207216787 0.98255604194 0.98303733546 0.98354250387 0.98404169653 0.98456603716 0.98508084704 0.985622245 
0.98615042247 0.9867067724 0.98724611117 0.98781531808 0.98836366595 0.98894364475 0.98949891416 0.99008758783 0.99064776621 
0.99124306297 0.99180622287 0.99240607227 0.99297038124 0.99357270947 0.99413643973 0.99473916436 0.99530070196 0.99590172633 
0.99645957993 0.99705678749 
