# vtk DataFile Version 5.1
vtk output
ASCII
DATASET STRUCTURED_POINTS
DIMENSIONS 102 2 2
SPACING 0.1 0 0
ORIGIN 0 0 0
CELL_DATA 101
FIELD FieldData 3
velocity 1 101 double
10.927050983 10.839530911 10.751318189 10.66371088 10.575757862 10.488387795 10.400980635 10.31416794 10.22759416 
10.141653904 10.056200658 9.9714419923 9.8873943261 9.8041194976 9.7217586243 9.6402618811 9.5598634688 9.4804298828 
9.4022623731 9.3251666029 9.2494895693 9.1749945913 9.1020571499 9.0304129853 8.9604522739 8.8918947361 8.8251344741 
8.7598839634 8.6965331102 8.6347934787 8.5750450037 8.5170025124 8.4610322907 8.406854679 8.3548205259 8.3046562102 
8.2566970645 8.2106744803 8.1669097446 8.1251368433 8.0856658883 8.0482297958 8.0131316304 7.9800984734 7.9494315827 
7.9208464833 7.8946488305 7.8705360677 7.8488252563 7.8291885893 7.8119621775 7.796785325 7.784021283 7.7732685475 
7.7649258452 7.7585428717 7.7545621849 7.752476841 7.7527813599 7.7549047232 7.7594010495 7.7656284871 7.7742076026 
7.7844199265 7.7969582188 7.8110229033 7.8273832323 7.8451556754 7.8651884664 7.8865132818 7.9100576321 7.9347699555 
7.9616547416 7.9895815381 8.0196265133 8.0505878712 8.0836047453 8.1174151445 8.1532086374 8.1896781799 8.2280470449 
8.2669826361 8.3077206499 8.3489271207 8.3918240374 8.4351051973 8.4799476686 8.5251072814 8.5716797436 8.6185224179 
8.6666079496 8.7149399363 8.7643210913 8.8139509839 8.8644106043 8.9151499352 8.966471951 9.018135682 9.0701059023 
9.1225128051 9.1749197079 
pressure 1 101 double
85.722729773 77.492671786 69.2626138 61.047461736 52.814227709 44.637848753 36.434038711 28.321189779 20.178454411 
12.154500225 4.1035771291 -3.8057722065 -11.735055024 -19.503989479 -27.282737902 -34.885578182 -42.485879175 -49.89729423 
-57.292281235 -64.487493714 -71.651425785 -78.606406014 -85.514756521 -92.206405122 -98.835956155 -105.24227504 -111.57121394 
-117.67146514 -123.67947986 -129.45433141 -135.12270186 -140.55435991 -145.8660425 -150.93836874 -155.87807206 -160.57668561 
-165.13093516 -169.44329814 -173.60048865 -177.51597486 -181.26640903 -184.77635524 -188.11226808 -191.21000783 -194.12557615 
-196.80645591 -199.29779294 -201.55917099 -203.62430644 -205.46553487 -207.10438084 -208.52677133 -209.74107518 -210.74784947 
-211.54113453 -212.13736047 -212.51485621 -212.70737061 -212.67593343 -212.47325294 -212.04127954 -211.45350072 -210.63083555 
-209.66952554 -208.46736428 -207.14544323 -205.57623391 -203.90785055 -201.9851942 -199.98559558 -197.72414799 -195.40954468 
-192.82492087 -190.21234846 -187.32103136 -184.42820938 -181.24746388 -178.09265293 -174.64044642 -171.24230449 -167.53723473 
-163.91467329 -159.97590415 -156.1479451 -151.99515052 -147.98078468 -143.63410071 -139.45214883 -134.93213358 -130.6011109 
-125.92871154 -121.46669706 -116.66322295 -112.08773478 -107.17483526 -102.50271347 -97.50235862 -92.749657448 -87.684119696 
-82.866010929 -77.757845118 
crossSection 1 101 double
1.0097434014 1.0088017924 1.0078614998 1.0069242208 1.0059861899 1.0050559333 1.004123852 1.0032033798 1.0022807889 
1.0013729005 1.0004631999 0.99957070286 0.99867715473 0.99780283774 0.99692856613 0.99607517514 0.99522316394 0.99439337961 
0.99356646846 0.99276288584 0.99196376486 0.99118887471 0.99042007834 0.98967625016 0.98894015061 0.98822961716 0.98752841771 
0.98685326125 0.98618898978 0.98555112978 0.98492563276 0.98432681517 0.98374175236 0.98318354055 0.98264038048 0.98212414775 
0.98162416432 0.98115108799 0.98069535812 0.98026641526 0.97985581773 0.97947178247 0.97910699802 0.97876844041 0.97844995304 
0.97815723947 0.97788533897 0.97763863397 0.9774134196 0.97721268914 0.9770340744 0.97687909043 0.9767468088 0.97663715502 
0.97655076662 0.97648584543 0.97644474443 0.97642378484 0.97642720745 0.97644927399 0.97649630695 0.97656030934 0.97664989875 
0.9767546024 0.97688556269 0.97702959972 0.97720062272 0.97738250364 0.97759216743 0.97781029327 0.97805707085 0.97830974572 
0.97859201326 0.97887745724 0.97919350188 0.97950986421 0.97985789119 0.98020326375 0.98058140293 0.98095383386 0.98136014543 
0.98175765296 0.98219013242 0.98261071874 0.98306730104 0.98350896625 0.98398752919 0.98444828516 0.98494665204 0.98542453614 
0.98594047777 0.98643356635 0.98696480253 0.98747122397 0.98801542465 0.98853337187 0.98908815806 0.98961590026 0.99017884511 
0.99071473846 0.99128336861 
