# vtk DataFile Version 5.1
vtk output
ASCII
DATASET STRUCTURED_POINTS
DIMENSIONS 102 2 2
SPACING 0.1 0 0
ORIGIN 0 0 0
CELL_DATA 101
FIELD FieldData 3
velocity 1 101 double
9.0729490169 9.1631114009 9.2534149629 9.3430237463 9.4324347048 9.5211622857 9.6094019235 9.6969405813 9.783745918 
9.8698078981 9.9549311117 10.039248421 10.12245635 10.204780317 10.285854038 10.365954701 10.444689157 10.522354528 
10.598558205 10.673593465 10.747088085 10.819314746 10.889934986 10.95919006 11.026783262 11.092918455 11.157344343 
11.2202253 11.281355698 11.340861303 11.398579843 11.454601591 11.508803432 11.561244865 11.611836417 11.660612632 
11.707511289 11.752548514 11.795682412 11.836917643 11.87622543 11.913606133 11.949036779 11.982520639 12.014033264 
12.043587993 12.071151735 12.096754922 12.120348831 12.141987832 12.161600808 12.179272673 12.194903429 12.208614857 
12.22027192 12.230039241 12.237740981 12.24359016 12.247364846 12.249331497 12.249217378 12.247346788 12.243392196 
12.237739353 12.230002813 12.22063243 12.20918279 12.196169313 12.18108587 12.164513475 12.145886102 12.125848662 
12.103777926 12.080378944 12.054976208 12.028328717 11.999716216 11.969942625 11.938253515 11.905485404 11.870863768 
11.835241623 11.797842431 11.759515317 11.71950433 11.678629493 11.636183101 11.592925499 11.548230486 11.502762245 
11.456015475 11.408515284 11.359923283 11.310575713 11.260354164 11.209348933 11.15772204 11.105253228 11.052452969 
10.998718201 10.944983433 
pressure 1 101 double
-89.445754102 -80.839331215 -72.232908328 -63.712225238 -55.185058498 -46.775150782 -38.35871862 -30.08341347 -21.80670378 
-13.688647579 -5.5782349688 2.3610939854 10.28094028 18.021229841 25.728416977 33.250525727 40.724995981 48.010960346 
55.234545134 62.267585718 69.223861041 75.988385823 82.66253376 89.144136668 95.522816172 101.7082704 107.7794995 
113.65674552 119.40979604 124.96792497 130.39322992 135.62246321 140.71153668 145.6032032 150.34857205 154.8950838 
159.29023032 163.48505793 167.52437256 171.36202154 175.04076457 178.51675325 181.8310247 184.94186442 187.88858131 
190.63175929 193.20863946 195.58260456 197.78815648 199.792308 201.62582597 203.26050516 204.72206942 205.98855355 
207.07903498 207.97953326 208.7006023 209.23825315 209.59239255 209.77126159 209.76178268 209.58686049 209.21792268 
208.6951216 207.97175466 207.10790346 206.03603255 204.83886811 203.42534082 201.90349575 200.15611097 198.31909614 
196.24663428 194.10481513 191.71706926 189.2816349 186.58944222 183.87236636 180.88763963 177.90163245 174.63739045 
171.3958407 167.86623731 164.38314402 160.60349499 156.89338851 152.88019514 148.95804724 144.72901599 140.61013941 
136.18419636 131.88413427 127.28143316 122.81583972 118.05776212 113.44227556 108.55142152 103.80153197 98.801699149 
93.93261404 88.848763079 
crossSection 1 101 double
0.98998301617 0.99094028557 0.99189894409 0.99284942324 0.99380199405 0.9947428092 0.99568569242 0.99661407301 0.99754391054 
0.99845718902 0.99937086061 1.0002664742 1.00116109 1.0020365835 1.0029094744 1.0037625042 1.0046112101 1.0054395481 
1.006261806 1.0070633439 1.0078570754 1.0086298279 1.0093931275 1.0101352359 1.0108663595 1.011576094 1.0122734491 
1.01294921 1.0136113466 1.0142516659 1.0148772687 1.01548081 1.0160686916 1.0166342504 1.0171833461 1.017709849 
1.018219212 1.0187057163 1.0191745143 1.019620207 1.0200477194 1.0204519165 1.0208375325 1.021199678 1.0215428952 
1.0218625607 1.0221629841 1.0224398681 1.0226972103 1.0229311375 1.0231452184 1.0233361397 1.0235068873 1.0236548793 
1.0237823306 1.0238875953 1.0239718972 1.024034762 1.0240761728 1.0240970896 1.0240959812 1.0240755259 1.0240323847 
1.0239712564 1.0238866859 1.0237857049 1.023660428 1.0235205342 1.0233553945 1.0231776449 1.0229736097 1.0227591745 
1.0225173364 1.0222674951 1.0219890745 1.0217052105 1.0213915574 1.0210751517 1.0207277472 1.0203803711 1.0200008296 
1.019624136 1.0192142055 1.0188099191 1.0183714833 1.0179413895 1.017476467 1.0170223997 1.016533145 1.0160569734 
1.0155456755 1.0150492892 1.0145183704 1.0140036649 1.0134556785 1.0129245385 1.0123621655 1.0118164493 1.0112424937 
1.0106840165 1.0101013995 
