# vtk DataFile Version 5.1
vtk output
ASCII
DATASET STRUCTURED_POINTS
DIMENSIONS 102 2 2
SPACING 0.1 0 0
ORIGIN 0 0 0
CELL_DATA 101
FIELD FieldData 3
velocity 1 101 double
12.853169549 12.813007364 12.769821626 12.72558365 12.678587061 12.630467272 12.579839024 12.528040225 12.473968489 
12.418702011 12.361384448 12.302869983 12.242514034 12.18097952 12.11780252 12.053484041 11.987713168 11.920854811 
11.852726892 11.783580549 11.713341719 11.64216679 11.570072021 11.497135004 11.423447493 11.349021457 11.274011876 
11.198375789 11.122321404 11.045759324 10.968942977 10.891743103 10.81445206 10.736905641 10.659430315 10.581830431 
10.504462995 10.427103218 10.350136097 10.273309046 10.197033337 10.121029146 10.04573295 9.9708376708 9.8968043823 
9.8232983474 9.7508049076 9.6789610744 9.6082762261 9.5383585301 9.4697410928 9.4020028398 9.3357000323 9.2703823558 
9.2066281937 9.1439586029 9.0829723961 9.0231634399 8.9651484142 8.9083964829 8.8535385463 8.8000228302 8.7484895026 
8.6983711223 8.6503106457 8.6037319654 8.5592726031 8.5163567356 8.4756062682 8.4364567741 8.3995021968 8.3642029748 
8.3311103956 8.299725758 8.2705404947 8.2431154177 8.2178622835 8.1944228209 8.1731065885 8.1536604323 8.1362664654 
8.1208036318 8.1072986693 8.0957922907 8.0861253674 8.0785325702 8.0726360546 8.0688988995 8.0666896346 8.0667360957 
8.0681166262 8.0718615859 8.0767214533 8.0840676975 8.0922847829 8.103123977 8.1145658803 8.1287795062 8.1433049485 
8.1607651863 8.1782254241 
pressure 1 101 double
263.83709245 260.00713637 256.17718029 252.00362493 247.78950607 243.28435666 238.70676983 233.88324287 228.96321603 
223.83578425 218.5947058 213.17911184 207.63877395 201.9520214 196.13466952 190.19499741 184.12337865 177.95022285 
171.64762789 165.26157184 158.75186613 152.17458199 145.48222343 138.736404 131.88644483 124.9957262 118.01379786 
111.00267233 103.91495238 96.808671257 89.641832138 82.466297933 75.247437598 68.029085675 60.785640515 53.551310202 
46.310951123 39.087746784 31.878259666 24.69340249 17.542554551 10.423226268 3.3586201574 -3.6681997529 -10.619282062 
-17.526983737 -24.33774488 -31.100257874 -37.744554229 -44.33651738 -50.78903063 -57.18595942 -63.42236773 -69.600816434 
-75.597962423 -81.53567834 -87.27173103 -92.947798189 -98.402406262 -103.79737611 -108.95180998 -114.04781684 -118.88509728 
-123.66595653 -128.17096805 -132.62225556 -136.78184275 -140.89095426 -144.69400017 -148.45018984 -151.88767548 -155.28207328 
-158.34711804 -161.37272602 -164.06060888 -166.71227705 -169.02043896 -171.29482165 -173.22284986 -175.11834402 -176.66793919 
-178.18460625 -179.35953363 -180.49900708 -181.30503289 -182.07041383 -182.51522815 -182.91097138 -183.00409906 -183.03589225 
-182.78859295 -182.46323189 -181.88839018 -181.213653 -180.32565972 -179.31018281 -178.12480828 -176.7779669 -175.31222662 
-173.64402295 -171.91603574 
crossSection 1 101 double
1.0304489974 1.0299970939 1.0295454876 1.0290537041 1.0285574983 1.028027421 1.0274892403 1.0269226019 1.02634511 
1.025743792 1.0251296921 1.0244957234 1.02384776 1.0231833119 1.0225042735 1.0218116543 1.0211043761 1.0203860225 
1.0196533881 1.0189118565 1.0181567993 1.0173947557 1.0166202574 1.0158404669 1.0150495559 1.0142548703 1.0134506172 
1.0126439631 1.0118294751 1.0110138402 1.0101922532 1.0093706723 1.0085451416 1.0077206813 1.0068943707 1.0060701139 
1.0052461832 1.0044252128 1.003606804 1.0027921857 1.0019824079 1.0011771734 1.0003790874 0.99958621644 0.99880281834 
0.9980252213 0.99725942553 0.99649992646 0.99575454903 0.99501586864 0.99429361047 0.99357835011 0.99288178077 0.99219240726 
0.99152394943 0.99086278112 0.99022469596 0.98959389018 0.98898826389 0.98838980595 0.98781853767 0.98725423163 0.98671902288 
0.98619048423 0.98569282991 0.98520148021 0.98474266146 0.98428972502 0.98387080376 0.98345730638 0.98307912169 0.98270589145 
0.98236905774 0.98203672775 0.98174163462 0.98145064769 0.98119746151 0.98094807645 0.98073674346 0.98052904313 0.98035929398 
0.98019319459 0.9800645502 0.9799398119 0.97985159053 0.97976782886 0.97971915426 0.9796758524 0.97966566287 0.97966218427 
0.97968924263 0.97972484386 0.97978774817 0.97986159167 0.97995878672 0.98006995318 0.98019974263 0.98034724276 0.980507802 
0.98069058737 0.98087997713 
