# vtk DataFile Version 5.1
vtk output
ASCII
DATASET STRUCTURED_POINTS
DIMENSIONS 102 2 2
SPACING 0.1 0 0
ORIGIN 0 0 0
CELL_DATA 101
FIELD FieldData 3
velocity 1 101 double
7.1468304511 7.1329057015 7.1230816743 7.1149560693 7.1108300326 7.108437153 7.1099127396 7.1131540269 7.1201083885 
7.1288552687 7.1411406995 7.1552369402 7.1726827432 7.1919469939 7.2143615266 7.238589988 7.2657628287 7.2947319957 
7.3264361784 7.3599056018 7.3958998743 7.4336148915 7.4736459581 7.5153403462 7.5591450628 7.6045435762 7.6518510696 
7.7006718313 7.7512055224 7.8031622455 7.8566417589 7.9114457805 7.9675887286 8.0249508494 8.0834744818 8.1431066065 
8.2037293192 8.2653459016 8.3277886037 8.3911079022 8.4550952399 8.5198403936 8.5851018344 8.6510017719 8.7172725528 
8.7840627481 8.851084694 8.9185077832 8.9860300015 9.0538362766 9.1216157373 9.1895635308 9.25736554 9.3252215137 
9.3928200909 9.4603594437 9.5275376097 9.5945442162 9.6610942029 9.7273606945 9.7930840838 9.8584118832 9.9231196834 
9.9873190025 10.05083167 10.11372148 10.175868893 10.237276875 10.297898263 10.357660751 10.416604589 10.474566506 
10.531690374 10.587705169 10.642875588 10.696805188 10.749897419 10.801612196 10.85251003 10.901888783 10.950484297 
10.997414268 11.043607575 11.08798449 11.13168346 11.173411611 11.214531588 11.253523943 11.291987447 11.328165811 
11.363902228 11.397197435 11.430142712 11.460494863 11.49059119 11.517949928 11.545145438 11.569470258 11.593718729 
11.614979313 11.636239897 
pressure 1 101 double
-273.40195123 -274.51253611 -275.62312099 -276.19570062 -276.73915984 -276.78021879 -276.76532568 -276.28404396 -275.72277358 
-274.73091915 -273.63818885 -272.14997207 -270.54336505 -268.57526302 -266.47473949 -264.04529763 -261.47289915 -258.60251654 
-255.5820687 -252.29277329 -248.8495921 -245.16481101 -241.32541786 -237.26974724 -233.06159655 -228.66057519 -224.11179811 
-219.39168802 -214.53085489 -209.51843176 -204.37433495 -199.09669081 -193.69814893 -188.18250885 -182.55819254 -176.83174672 
-171.01002567 -165.09977799 -159.10858827 -153.04122174 -146.90795214 -140.70971168 -134.46110756 -128.15769979 -121.81978269 
-115.43629251 -109.03429372 -102.59511699 -96.153423306 -89.682214689 -83.224324645 -76.743959588 -70.29244852 -63.824998159 
-57.401490636 -50.968208312 -44.593356553 -38.214674536 -31.908141697 -25.603676643 -19.384123968 -13.172689626 -7.0577666568 
-0.95739234959 5.0362704535 11.008317092 16.865113743 22.692301289 28.397653914 34.06416045 39.604521233 45.095207898 
50.458059245 55.758445495 60.932298133 66.028540181 71.002928694 75.881802611 80.647277777 85.296168706 89.844285799 
94.251184715 98.574486856 102.72799624 106.81999172 110.7093415 114.56447396 118.17954894 121.79315912 125.12453907 
128.49281706 131.53183042 134.65175715 137.39054911 140.2598261 142.69144158 145.30840826 147.42688976 149.79042776 
151.59092804 153.70035241 
crossSection 1 101 double
0.96984928765 0.96972960726 0.96960994902 0.96954826597 0.96948972546 0.96948530287 0.96948690705 0.96953874941 0.96959921319 
0.96970607617 0.96982382803 0.96998423173 0.97015744051 0.9703696854 0.97059628779 0.97085847258 0.97113620102 0.97144624196 
0.97177265235 0.97212830344 0.97250080243 0.97289967601 0.9733155473 0.97375513477 0.97421156419 0.97468925637 0.97518335547 
0.97569646248 0.97622529039 0.97677106071 0.97733164414 0.97790728272 0.9784966341 0.97909931933 0.979714453 0.98034135239 
0.980979299 0.98162758358 0.98228540267 0.98295225993 0.98362705094 0.98430969632 0.9849986081 0.98569429506 0.98639453406 
0.98710056268 0.98780939999 0.98852312416 0.98923790157 0.98995673487 0.9906748701 0.99139629041 0.99211528163 0.99283683455 
0.99355426434 0.99427356555 0.99498710447 0.99570184118 0.9964092509 0.99711718246 0.9978163187 0.9985152765 0.99920409173 
0.99989197859 1.0005685246 1.0012433137 1.0019057439 1.0025654777 1.0032120494 1.0038548381 1.0044839147 1.0051079346 
1.0057179876 1.0063214807 1.0069110909 1.0074923634 1.008060223 1.0086176454 1.0091625582 1.0096945658 1.0102154482 
1.0107205419 1.0112164225 1.0116931716 1.0121631899 1.0126102354 1.0130536402 1.0134696991 1.0138858456 1.0142697173 
1.0146580624 1.0150086365 1.0153687335 1.0156849986 1.0160164901 1.016297545 1.0166001538 1.01684522 1.0171187391 
1.0173271749 1.0175714551 
