# vtk DataFile Version 5.1
vtk output
ASCII
DATASET STRUCTURED_POINTS
DIMENSIONS 102 2 2
SPACING 0.1 0 0
ORIGIN 0 0 0
CELL_DATA 101
FIELD FieldData 3
velocity 1 101 double
10.927050983 10.839711152 10.751559749 10.663987753 10.575956682 10.48848009 10.40086186 10.313808097 10.226899726 
10.140594926 10.054696083 9.9694637841 9.8848748017 9.8010344662 9.7180542652 9.6359196635 9.5548436036 9.4747210772 
9.3958387708 9.3180254128 9.2416185312 9.1664003189 9.0927404235 9.0203903438 8.9497367766 8.8805129845 8.813110851 
8.7472549012 8.6833331799 8.6210683708 8.5608381793 8.5023680442 8.4460210913 8.3915280695 8.3392353177 8.2888796319 
8.2407901887 8.1947089502 8.1509492052 8.1092557618 8.0699287763 8.0327123128 7.9978974665 7.9652228596 7.934975751 
7.9068836762 7.8812362689 7.8577435499 7.8367045518 7.8178047395 7.8013601976 7.78702436 7.7751384493 7.7653161511 
7.7579321354 7.7525525843 7.7495939205 7.7485672538 7.7499388165 7.7531575024 7.7587468991 7.7660872261 7.7757661789 
7.7870898079 7.8007155749 7.81587113 7.8332879438 7.8521126179 7.8731531214 7.8954742764 7.9199609353 7.9455976781 
7.9733441561 8.002108873 8.0329213561 8.0646211923 8.0982996524 8.1327379228 8.1690773146 8.2060548362 8.2448462213 
8.2841625584 8.3251941567 8.3666487723 8.4097069396 8.4531002466 8.497970382 8.5431046906 8.5895720771 8.6362524352 
8.6841030187 8.7321379437 8.7811590575 8.8303611577 8.880342199 8.9305286851 8.9812617514 9.0322548383 9.0835353308 
9.1351625323 9.1867897337 
pressure 1 101 double
85.033892437 76.869257926 68.704623414 60.535258645 52.346366743 44.196323911 36.016200734 27.910795752 19.771995661 
11.737537131 3.6721282487 -4.2643537533 -12.224836674 -20.035861166 -27.860493634 -35.518397841 -43.1769685 -50.654174511 
-58.11730961 -65.386587182 -72.625891849 -79.660615578 -86.648826879 -93.423225554 -100.13437222 -106.62376788 -113.03333167 
-119.21436565 -125.29943937 -131.15028259 -136.8897203 -142.390265 -147.76482009 -152.89685051 -157.88929799 -162.63663771 
-167.23187754 -171.58051153 -175.76565055 -179.70382066 -183.4682313 -186.9865042 -190.32185888 -193.41316621 -196.31344704 
-198.97309797 -201.43458209 -203.66024912 -205.68147062 -207.47314987 -209.05483973 -210.41478755 -211.5597937 -212.49244159 
-213.20563143 -213.71748168 -214.00562974 -214.10513437 -213.97679814 -213.67422381 -213.13961058 -212.4468921 -211.51772002 
-210.44830511 -209.13766129 -207.70634905 -206.02854774 -204.25132308 -202.22176635 -200.11563256 -197.75067606 -195.33348722 
-192.65031304 -189.9406079 -186.9571064 -183.97394502 -180.70860697 -177.47141118 -173.94323149 -170.47163004 -166.70002365 
-163.01370273 -159.01843325 -155.13699281 -150.9381138 -146.88093033 -142.49873889 -138.28483486 -133.73983704 -129.38775747 
-124.7006443 -120.22834099 -115.41997393 -110.84469771 -105.93610196 -101.27430374 -96.286667391 -91.553908773 -86.508585738 
-81.71946005 -76.637974501 
crossSection 1 101 double
1.0096645403 1.0087305207 1.0077977965 1.0068658261 1.0059329248 1.0050057361 1.0040764137 1.0031568507 1.0022347695 
1.001325756 1.0004144841 0.9995189928 0.9986220007 0.99774302283 0.99686367667 0.99600419285 0.99514574546 0.99430869746 
0.99347427734 0.99266254094 0.99185513985 0.99107149905 0.9902939587 0.98954108125 0.98879607963 0.9880764943 0.98736653204 
0.98668260763 0.98600999502 0.9853639214 0.98473076641 0.98412453779 0.98353273536 0.98296813587 0.98241935896 0.9818979508 
0.98139364328 0.9809167574 0.9804581291 0.98002685854 0.9796148824 0.97923007832 0.97886548987 0.97852776007 0.9782110591 
0.97792076923 0.97765222356 0.97740950055 0.97718915191 0.97699388971 0.97682156137 0.97667342873 0.97654873479 0.97644718482 
0.9763695409 0.97631382224 0.9762824573 0.97627162656 0.97628559555 0.97631853099 0.97637672811 0.97645214404 0.97655331629 
0.97666977824 0.97681253905 0.97696847931 0.97715132191 0.97734505539 0.97756636583 0.97779610599 0.97805417546 0.97831805024 
0.97861108664 0.9789071542 0.9792332927 0.97955955701 0.97991686956 0.98027129564 0.98065779928 0.98103832807 0.98145199204 
0.98185655492 0.98229530653 0.98272183939 0.98318356859 0.98363002545 0.98411258824 0.98457695438 0.9850781751 0.98555847966 
0.98607615222 0.98657048026 0.98710236852 0.98760887239 0.98815270984 0.98866961989 0.98922310881 0.98974874327 0.99030955357 
0.99084232747 0.99140809565 
