# vtk DataFile Version 5.1
vtk output
ASCII
DATASET STRUCTURED_POINTS
DIMENSIONS 102 2 2
SPACING 0.1 0 0
ORIGIN 0 0 0
CELL_DATA 101
FIELD FieldData 3
velocity 1 101 double
11.763355757 11.684548128 11.604061973 11.523599262 11.441810145 11.360000475 11.277181666 11.194333902 11.110764533 
11.027187803 10.943151704 10.859154822 10.774939274 10.690830057 10.606724488 10.522808952 10.439103567 10.355685013 
10.272669387 10.190047387 10.108009025 10.026478304 9.9457011682 9.8655504274 9.7863134568 9.7078241254 9.630399747 
9.5538447045 9.4784973573 9.4041396361 9.3311243183 9.2592158109 9.1887766675 9.1195568594 9.051925825 8.9856205741 
8.921016087 8.8578364702 8.796462273 8.7366035185 8.6786475598 8.6222880833 8.5679215336 8.5152220929 8.4645984861 
8.4157014691 8.3689559793 8.3239848342 8.2812336952 8.2402925131 8.2016325854 8.1648058389 8.1303143264 8.097666768 
8.0674010853 8.0389778043 8.0129755906 7.988802226 7.9670815033 7.9471646067 7.9297240723 7.9140516133 7.9008710614 
7.8894130644 7.8804539241 7.8731632261 7.8683692063 7.8651823199 7.864480149 7.8653182177 7.8686184657 7.8733882952 
7.8805862653 7.8891814144 7.9001580931 7.9124600082 7.927083062 7.9429622377 7.9610870463 7.9804041964 8.0018749123 
8.0244821346 8.0491327622 8.0748746822 8.1025301685 8.1312450474 8.1617223781 8.1932431722 8.2263524708 8.2605078288 
8.296053454 8.3326686431 8.3704502829 8.4093480327 8.4491617942 8.4901630517 8.5318025456 8.5747271359 8.6179845543 
8.6626517425 8.7073189308 
pressure 1 101 double
164.1378239 156.68761002 149.23739614 141.66200804 134.05786086 126.37894661 118.65253807 110.89306201 103.07553435 
95.259559473 87.381589196 79.534066545 71.625902212 63.772467913 55.863942358 48.030721802 40.151240387 32.36465877 
24.543165923 16.829764245 9.0946908898 1.480946688 -6.139858657 -13.627706287 -21.107059931 -28.443181122 -35.754657322 
-42.913797816 -50.031829813 -56.989472398 -63.88945866 -70.621978877 -77.280391916 -83.765207041 -90.159702297 -96.37541242 
-102.48493485 -108.41145483 -114.21634101 -119.83502195 -125.31709563 -130.61083474 -135.75349412 -140.7068316 -145.49512674 
-150.09432875 -154.51502784 -158.74815451 -162.78979803 -166.6467559 -170.29969784 -173.7722761 -177.02871203 -180.11060224 
-182.96458393 -185.65138322 -188.0988201 -190.38801789 -192.4266657 -194.31761443 -195.94705185 -197.44092206 -198.66251616 
-199.76223688 -200.57909856 -201.28928373 -201.70621433 -202.03307639 -202.05650688 -202.00775862 -201.64568276 -201.23042866 
-200.49233159 -199.72095002 -198.61773367 -197.50175123 -196.04565794 -194.59761731 -192.80215289 -191.03547578 -188.91533302 
-186.84417953 -184.41516313 -182.05428911 -179.3332426 -176.69785659 -173.70259169 -170.808213 -167.5574415 -164.4197611 
-160.9330291 -157.56777507 -153.86539907 -150.28820845 -146.3912124 -142.61751134 -138.54756368 -134.59245783 -130.37180697 
-126.24998424 -121.90139093 
crossSection 1 101 double
1.0187814536 1.0179175426 1.0170547299 1.0161785451 1.0153001722 1.014414318 1.0135241543 1.0126313597 1.0117330781 
1.0108361694 1.0099333528 1.0090352275 1.0081313734 1.0072349759 1.0063334979 1.0054417962 1.0045460236 1.0036619877 
1.0027751625 1.0019017437 1.0010270164 1.0001671279 0.99930755096 0.99846404964 0.99762257087 0.99679823972 0.99597769398 
0.99517522578 0.99437832655 0.99360030844 0.99282963901 0.99207853804 0.9913365427 0.99061469251 0.98990366793 0.98921325652 
0.98853534357 0.98787840224 0.98723557838 0.98661397197 0.98600804439 0.98542346283 0.98485606251 0.98431001368 0.98378259046 
0.98327639457 0.98279021317 0.98232499856 0.98188113586 0.98145783624 0.98105717964 0.98067653284 0.98031977973 0.97998232795 
0.97966998639 0.97937607781 0.97910846815 0.97885826007 0.97863551769 0.97842898085 0.97825105974 0.97808798409 0.97795466128 
0.97783466285 0.97774554349 0.97766807241 0.97762259551 0.9775869451 0.97758438964 0.97758970641 0.97762919782 0.97767449231 
0.97775500916 0.97783916755 0.97795954829 0.97808134465 0.97824029433 0.97839840339 0.9785945003 0.97878751067 0.97901921272 
0.97924564039 0.97951129131 0.97976959341 0.98006742856 0.98035601713 0.98068416912 0.98100142488 0.9813579288 0.98170221465 
0.98208501318 0.98245468737 0.9828616357 0.98325506443 0.98368393511 0.98409950445 0.98454799244 0.98498411923 0.98544984718 
0.98590498882 0.98638551291 
