# vtk DataFile Version 5.1
vtk output
ASCII
DATASET STRUCTURED_POINTS
DIMENSIONS 102 2 2
SPACING 0.1 0 0
ORIGIN 0 0 0
CELL_DATA 101
FIELD FieldData 3
velocity 1 101 double
12.853169549 12.812617341 12.768952451 12.724268273 12.676765668 12.628167939 12.577026115 12.524741109 12.470167306 
12.414428497 12.356638818 12.297686397 12.2369057 12.174986199 12.111447818 12.046813756 11.980759097 11.913668633 
11.845346653 11.776063194 11.705729802 11.634521549 11.562438911 11.489578343 11.416014117 11.341777381 11.267003874 
11.191670099 11.115963354 11.03981387 10.963452685 10.886770164 10.810035037 10.733102547 10.656274572 10.579374562 
10.50273425 10.426147472 10.349973539 10.273977909 10.198546011 10.123415432 10.04899688 9.9750000361 9.9018604759 
9.8292596125 9.7576577152 9.6867074146 9.6168935627 9.5478395401 9.4800545404 9.413132469 9.3476063008 9.2830406844 
9.2199912987 9.1579944069 9.0976265912 9.0383974709 8.9809017932 8.9246253692 8.8701772152 8.8170234906 8.7657822057 
8.7159055729 8.6680137194 8.6215523875 8.5771351255 8.5342106714 8.4933752712 8.4540923153 8.4169278061 8.3813738156 
8.3479507739 8.3161959889 8.286566469 8.2586639504 8.2328615555 8.2088473459 8.186887439 8.1667808301 8.1486608811 
8.1324647768 8.1181648405 8.1058662041 8.0953495232 8.0869198978 8.0801336227 8.0755297111 8.0724057289 8.0715700188 
8.0720258816 8.0748873052 8.0788272478 8.0853018598 8.0926178971 8.1026095618 8.1131826537 8.1265837293 8.1402850015 
8.1569770114 8.1736690214 
pressure 1 101 double
266.23955503 262.29955873 258.35956242 254.07033686 249.73724254 245.11297029 240.41085946 235.4670648 230.42017678 
225.17370572 219.8064446 214.27541266 208.61237152 202.81609129 196.88208226 190.84097896 184.66106126 178.39658119 
171.99608216 165.53059678 158.93512275 152.29183007 145.52726502 138.73008876 131.82257995 124.89606661 117.87199673 
110.84121036 103.72715643 96.617570687 89.440250135 82.27763748 75.063842187 67.874159989 60.650678992 53.459952696 
46.253484702 39.08768822 31.924745051 24.80967886 17.716481071 10.677648686 3.680014728 -3.2575015891 -10.134271247 
-16.945934493 -23.677176769 -30.339117758 -36.900928313 -43.390065521 -49.759420445 -56.053575817 -62.20845202 -68.28646134 
-74.205954086 -80.047770509 -85.71220656 -91.298995951 -96.690040874 -102.00426767 -107.10502593 -112.13052838 -116.92563501 
-121.64768882 -126.1233915 -130.52876104 -134.67299167 -138.74996812 -142.55240325 -146.29082926 -149.74293862 -153.13421935 
-156.22930217 -159.26640273 -161.99961175 -164.67704135 -167.04539418 -169.35917762 -171.36155589 -173.30919304 -174.94632923 
-176.5267437 -177.80119611 -179.01467427 -179.93079044 -180.77891226 -181.34278118 -181.82834449 -182.04773806 -182.17467814 
-182.05898213 -181.83228842 -181.3924233 -180.81805539 -180.06638722 -179.15119213 -178.10143362 -176.85306679 -175.52016839 
-173.94702036 -172.34705157 
crossSection 1 101 double
1.0307326202 1.0302675453 1.0298027851 1.0292971874 1.0287867966 1.0282425269 1.0276895384 1.0271086079 1.0265160711 
1.0259006454 1.0252716232 1.0246240128 1.0239615813 1.0232842294 1.0225914785 1.0218869475 1.0211669807 1.0204379386 
1.019693873 1.0189430786 1.0181780436 1.0174083326 1.0166254671 1.0158397373 1.0150421862 1.0142433837 1.0134342929 
1.0126253977 1.0118079078 1.01099192 1.0101691589 1.0093490847 1.0085241593 1.0077029972 1.0068789844 1.0060597114 
1.0052396478 1.0044252062 1.0036120777 1.0028053613 1.0020020921 1.0012059332 1.0004153746 0.99963253161 0.99885744994 
0.99809059478 0.9973336606 0.9965853669 0.9958491432 0.99512187534 0.99440880652 0.99370490918 0.99301731043 0.99233899908 
0.99167904616 0.99102839846 0.99039811825 0.98977706654 0.9891783283 0.98858865317 0.98802316065 0.98746648571 0.98693577021 
0.9864135581 0.98591897248 0.98543252216 0.98497523593 0.98452568123 0.98410667663 0.98369498614 0.98331505538 0.98294203354 
0.98260177705 0.98226806652 0.9819678923 0.98167397744 0.98141410145 0.98116031294 0.98094076051 0.9807272809 0.98054788907 
0.9803747593 0.98023518017 0.98010230669 0.98000201167 0.97990917429 0.97984745918 0.97979431926 0.9797703103 0.97975641923 
0.97976907984 0.97979388765 0.97984202616 0.97990488991 0.97998716804 0.98008735995 0.98020230224 0.98033901727 0.98048502137 
0.9806573841 0.98083273207 
