# vtk DataFile Version 5.1
vtk output
ASCII
DATASET STRUCTURED_POINTS
DIMENSIONS 102 2 2
SPACING 0.1 0 0
ORIGIN 0 0 0
CELL_DATA 101
FIELD FieldData 3
velocity 1 101 double
11.763355757 11.684993951 11.604865512 11.524743085 11.443196588 11.361609815 11.278912169 11.196162293 11.112589141 
11.028981766 10.944816557 10.860660918 10.77619377 10.691801865 10.60732826 10.523013817 10.438833131 10.354910413 
10.27132431 10.188106763 10.105417467 10.023216219 9.9417246793 9.8608469222 9.7808509012 9.7015981639 9.6233902684 
9.5460566211 9.4699223063 9.3947925247 9.3210080999 9.248355823 9.1771864895 9.1072724073 9.0389703616 8.9720404673 
8.9068430996 8.843127041 8.7812552598 8.7209648223 8.6626215323 8.6059492823 8.5513180405 8.4984361561 8.4476800269 
8.3987393346 8.3519999593 8.3071291949 8.2645260886 8.2238313916 8.1854614717 8.1490261187 8.1149634668 8.082847844 
8.0531436979 8.0253855062 8.0000684719 7.9766831555 7.9557596273 7.9367410114 7.9201957829 7.9055169017 7.8933139488 
7.8829280442 7.8750114583 7.8688531252 7.8651481745 7.8631346293 7.863548924 7.8655813712 7.8700061101 7.8759711806 
7.8842824564 7.894053695 7.9061138375 7.9195532138 7.9352121514 7.952171573 7.9712681961 7.9915910022 8.013954514 
8.037476931 8.0629281723 8.0894807148 8.117833455 8.1472422552 8.1783044423 8.2103924967 8.2439674603 8.2785557813 
8.3144433885 8.3513520532 8.3893498145 8.4283989023 8.4683030304 8.5093134453 8.5509198685 8.5937140426 8.6368193756 
8.6812218519 8.7256243283 
pressure 1 101 double
163.01829858 155.6895993 148.36090001 140.89295347 133.39485359 125.80795185 118.17050772 110.48651252 102.73975321 
94.981938096 87.155904332 79.348785251 71.473545026 63.642701902 55.748340525 47.920231027 40.036815075 32.238581319 
24.396097112 16.655365828 8.8836339427 1.2283107507 -6.4431211727 -13.985062473 -21.527045875 -28.927777719 -36.311705 
-43.543762501 -50.741721102 -57.778218452 -64.763153365 -71.577997802 -78.3238786 -84.891979263 -91.373967688 -97.671436519 
-103.86605073 -109.87039252 -115.75566423 -121.44595292 -127.00157399 -132.35861254 -137.56606776 -142.57252903 -147.41521245 
-152.0557591 -156.51907166 -160.78045312 -164.85187986 -168.72300535 -172.39217103 -175.86415771 -179.12286047 -182.18905645 
-185.03127941 -187.68726199 -190.10916349 -192.35271324 -194.35259678 -196.18364867 -197.76191422 -199.18248731 -200.34156582 
-201.35567328 -202.09994676 -202.71348841 -203.04919787 -203.26983738 -203.20498139 -203.04201044 -202.58623678 -202.05042858 
-201.21492157 -200.31837603 -199.115742 -197.87172476 -196.3158779 -194.73865538 -192.84470596 -190.94937835 -188.73352504 
-186.53585918 -184.01528682 -181.53155053 -178.72433441 -175.97113396 -172.89615119 -169.89027335 -166.56712167 -163.3253816 
-159.7743054 -156.31340188 -152.55522496 -148.89160404 -144.94766832 -141.09739684 -136.98950565 -132.96815577 -128.71852033 
-124.54106651 -120.17225377 
crossSection 1 101 double
1.0186515656 1.0178018988 1.0169532946 1.016089658 1.0152236406 1.0143484932 1.0134686582 1.0125846152 1.0116945216 
1.0108043333 1.0099075071 1.0090140371 1.0081139718 1.0072201743 1.0063203296 1.0054292269 1.004533024 1.0036476833 
1.0027584987 1.0018820091 1.0010031649 1.0001386144 0.99927336787 0.99842382039 0.99757535111 0.99674382348 0.99591521968 
0.99510465946 0.99429890317 0.99351216684 0.99273211874 0.99197195069 0.99122033485 0.99048934748 0.98976873633 0.98906939135 
0.98838219145 0.98771678275 0.98706522142 0.98643585961 0.98582197295 0.98523057187 0.98465619429 0.9841044596 0.98357121508 
0.98306063509 0.98256993042 0.98210176919 0.98165478913 0.981230082 0.98082778658 0.98044733807 0.98009046183 0.97975484583 
0.97944389913 0.97915346141 0.97888873357 0.9786435964 0.97842516056 0.97822522936 0.97805294889 0.97789792074 0.97777145698 
0.97766083073 0.97757965188 0.97751273972 0.97747613053 0.97745207087 0.97745914301 0.9774769143 0.97752661707 0.97758505258 
0.97767618383 0.97777398691 0.97790520388 0.97804096387 0.97821079372 0.97838300201 0.97858985206 0.97879691831 0.97903908563 
0.97927935405 0.9795550344 0.9798267998 0.98013409588 0.98043561949 0.98077254841 0.98110207332 0.9814665733 0.9818223394 
0.98221227578 0.98259253405 0.98300570465 0.98340873074 0.98384287068 0.98426697765 0.98471976384 0.98516331384 0.98563236923 
0.98609378412 0.98657668199 
