# vtk DataFile Version 4.2
vtk output
ASCII
DATASET STRUCTURED_POINTS
DIMENSIONS 102 2 2
SPACING 0.1 0 0
ORIGIN 0 0 0
CELL_DATA 101
FIELD FieldData 3
velocity 1 101 double
12.853169549 12.813012468 12.76982132 12.725588088 12.678586405 12.630471053 12.579837979 12.528043348 12.473967024 
12.418704473 12.361382535 12.302871774 12.24251165 12.180980633 12.117799644 12.053484465 11.987709782 11.92085454 
11.852722979 11.783579578 11.713337266 11.64216512 11.570067015 11.497132639 11.423441925 11.349018404 11.274005739 
11.198372059 11.122314696 11.045754933 10.968935699 10.891738068 10.814444216 10.73689998 10.659421915 10.581824167 
10.50445405 10.427096372 10.350126625 10.273301642 10.197023355 10.121021207 10.045722478 9.9708292222 9.8967934427 
9.8232894123 9.7507935241 9.6789516754 9.6082644227 9.5383486889 9.469728893 9.4019925768 9.3356874586 9.2703716897 
9.2066152675 9.1439475502 9.0829591373 9.0231520152 8.9651348411 8.9083846984 8.8535246754 8.8000106955 8.748475349 
8.6983586454 8.6502962223 8.6037191528 8.5592579207 8.5163435926 8.4755913362 8.4364433046 8.3994870237 8.3641891816 
8.3310949893 8.2997116438 8.2705248624 8.2431009852 8.2178464316 8.1944080732 8.1730905238 8.1536453725 8.136250195 
8.1207882638 8.1072822003 8.0957766194 8.0861087073 8.0785166015 8.0726192118 8.0688826398 8.066672619 8.0667195526 
8.0680994475 8.0718447693 8.0767041207 8.0840506192 8.0922673059 8.1031066496 8.1145482697 8.1287619425 8.1432872164 
8.1607473996 8.1782075828 
pressure 1 101 double
263.83887707 260.00885101 256.17882494 252.00546876 247.79101456 243.28631477 238.70814527 233.8853022 228.96446127 
223.8379332 218.59582372 213.18134007 207.63976766 201.95431966 196.13554253 190.19735736 184.1241349 177.95263706 
171.64827168 165.26403376 158.75240203 152.177086 145.48265613 138.73894538 131.886779 124.99830116 118.01403807 
111.00527787 103.91510301 96.811305121 89.641897304 82.468958496 75.24742113 68.031771823 60.785545925 53.554021187 
46.310781621 39.090482089 31.878018165 24.696161723 17.542243663 10.42600908 3.3582421865 -3.6653937453 -10.619725101 
-17.524155025 -24.338251222 -31.097407121 -37.745122329 -44.333645449 -50.789659142 -57.183067369 -63.423055491 -69.597905505 
-75.598708422 -81.532749944 -87.272534375 -92.944853886 -98.403266139 -103.79441759 -108.95272561 -114.04484587 -118.88606788 
-123.66297499 -128.17199278 -132.61926534 -136.7829207 -140.88795727 -144.69513034 -148.44718794 -151.88885675 -155.27906828 
-158.34834915 -161.36971971 -164.06188837 -166.70927114 -169.0217652 -171.29181778 -173.22422104 -175.11534374 -176.66935329 
-178.18161103 -179.36098843 -180.4960183 -181.30652594 -182.06743274 -182.51675682 -182.90799914 -183.0056605 -183.03292995 
-182.79018404 -182.46028048 -181.89000766 -181.21071327 -180.32730017 -179.30725534 -178.12646819 -176.77505206 -175.31390233 
-173.64112098 -171.91772345 
crossSection 1 101 double
1.0304492081 1.0299972961 1.0295456814 1.0290539213 1.0285576759 1.0280276513 1.027489402 1.0269228437 1.0263452561 
1.0257440439 1.0251298231 1.0244959841 1.0238478761 1.0231835803 1.0225043754 1.0218119294 1.0211044641 1.0203863033 
1.0196534629 1.0189121422 1.0181568614 1.0173950457 1.0166203075 1.0158407605 1.0150495944 1.014255167 1.0134506448 
1.0126442627 1.0118294924 1.0110141424 1.0101922607 1.0093709767 1.0085451397 1.0077209879 1.0068943599 1.0060704226 
1.005246164 1.0044255235 1.0036067766 1.0027924984 1.0019823727 1.001177488 1.0003790448 0.99958653287 0.99880276844 
0.99802553954 0.99725936863 0.99650024645 0.99575448533 0.99501619028 0.99429354016 0.9935786733 0.99288170399 0.99219273188 
0.99152386632 0.99086310704 0.99022460663 0.98959421724 0.98898816846 0.98839013399 0.98781843624 0.98725456048 0.98671891553 
0.98619081371 0.98569271676 0.98520181016 0.9847425426 0.98429005526 0.98387067931 0.98345763674 0.98307899177 0.98270622177 
0.98236892248 0.98203705788 0.98174149418 0.98145097747 0.98119731606 0.98094840576 0.98073659319 0.98052937184 0.98035913909 
0.98019352257 0.98006439093 0.97994013905 0.97985142712 0.97976815509 0.97971898699 0.97967617761 0.97966549203 0.97966250839 
0.97968906854 0.97972516681 0.97978757116 0.97986191341 0.97995860715 0.98007027368 0.98019956086 0.98034756201 0.98050761842 
0.98069090539 0.98087979213 
