# vtk DataFile Version 5.1
vtk output
ASCII
DATASET STRUCTURED_POINTS
DIMENSIONS 102 2 2
SPACING 0.1 0 0
ORIGIN 0 0 0
CELL_DATA 101
FIELD FieldData 3
velocity 1 101 double
12.853169549 12.81325865 12.770080492 12.726079708 12.67914152 12.631278428 12.580887318 12.529509885 12.476059205 
12.421631337 12.365595463 12.308670695 12.250589202 12.191778209 12.132233435 12.072172418 12.011764766 11.951087718 
11.89041201 11.82972797 11.769352921 11.709228412 11.649680262 11.590626658 11.532377253 11.4748426 11.41830173 
11.36266641 11.308177934 11.254753557 11.202594707 11.151625577 11.102008801 11.053675365 11.006752076 10.961175805 
10.917041474 10.874290683 10.832990782 10.793086987 10.754623368 10.717547833 10.681885215 10.647585426 10.614657727 
10.583053591 10.552769937 10.523759553 10.496009809 10.469474729 10.444134498 10.419944414 10.396879447 10.374896287 
10.353966306 10.334047746 10.315109687 10.297112105 10.280022814 10.263803716 10.248422147 10.233842114 10.220031065 
10.206955282 10.19458273 10.18288213 10.171822213 10.161374301 10.151508001 10.142197404 10.133412972 10.125131754 
10.117324925 10.109972721 10.103046756 10.096530749 10.090396344 10.084631125 10.079206204 10.074113544 10.069322978 
10.064831531 10.060606793 10.056651758 10.052930534 10.049453286 10.04617906 10.043126773 10.040248394 10.03757366 
10.035044897 10.032705359 10.030484459 10.02844246 10.026491699 10.024713956 10.022999201 10.021456518 10.019946783 
10.018613791 10.017280799 
pressure 1 101 double
264.99824248 261.16725363 257.33626478 253.16605359 248.94860373 244.45850771 239.88503957 235.10226814 230.21412391 
225.17426911 220.02167468 214.767996 209.40713869 203.98883312 198.47894002 192.94887579 187.34962965 181.76197084 
176.13136763 170.539383 164.93204306 159.38626446 153.8521734 148.39897264 142.98261343 137.66320258 132.40303307 
127.25285509 122.18108216 117.22953899 112.37213915 107.64259666 103.01953379 98.529542728 94.15513602 89.916812195 
85.800211244 81.820724624 77.96645354 74.24858333 70.657121038 67.199841523 63.868211218 60.667280357 57.589626627 
54.638156121 51.806293457 49.095284887 46.499206026 44.018042666 41.646379289 39.383267417 37.223699118 35.166055952 
33.205666189 31.340454225 29.566034057 27.880043504 26.278345528 24.758427927 23.316373899 21.949630911 20.654477233 
19.428409122 18.267874721 17.17049326 16.1328545 15.152765035 14.226922204 13.35337944 12.528899117 11.751840909 
11.018978208 10.329041281 9.6787455761 9.0672667353 8.4911740596 7.9501800329 7.4405949241 6.9627836147 6.5126527814 
6.0913683377 5.6942481108 5.3234518933 4.9734710681 4.6477103052 4.3395296281 4.053905305 3.7826745417 3.5328098648 
3.2941230828 3.0761337091 2.8659831316 2.6764502442 2.4911787615 2.3271260127 2.1633781848 2.0222535126 1.8769246448 
1.7565879936 1.6267706164 
crossSection 1 101 double
1.0305860624 1.0301339469 1.0296821288 1.0291906414 1.0286939445 1.0281655325 1.0276277275 1.0270657612 1.0264918901 
1.0259007114 1.0252968362 1.0246816628 1.0240545101 1.0234212215 1.0227778304 1.0221326938 1.0214801081 1.0208294958 
1.0201745117 1.0195246437 1.0188736145 1.0182303459 1.01758904 1.0169577004 1.0163312075 1.0157164917 1.01510917 
1.0145150752 1.0139305344 1.0133603376 1.0128014493 1.0122577162 1.0117266476 1.0112112655 1.0107095293 1.0102237577 
1.0097522724 1.0092968049 1.0088559625 1.0084309949 1.0080207312 1.007626032 1.0072458969 1.006880877 1.0065301021 
1.0061938811 1.0058714438 1.0055629121 1.0052675933 1.0049854683 1.0047159052 1.0044587812 1.0042135134 1.003979905 
1.0037574138 1.0035457933 1.0033445358 1.0031533643 1.0029718011 1.0027995539 1.0026361717 1.002481359 1.0023346883 
1.002195871 1.0020645001 1.0019403017 1.0018228861 1.0017120015 1.0016072712 1.001508472 1.0014152353 1.0013273732 
1.001244519 1.0011665271 1.0010930247 1.0010239171 1.0009588153 1.0008976857 1.0008401102 1.0007861292 1.0007352794 
1.0006876918 1.0006428369 1.0006009579 1.0005614324 1.0005246443 1.0004898434 1.0004575912 1.0004269658 1.0003987541 
1.0003718056 1.0003471949 1.00032347 1.0003020735 1.0002811587 1.0002626398 1.0002441558 1.0002282259 1.0002118219 
1.0001982392 1.0001835867 
