# vtk DataFile Version 5.1
vtk output
ASCII
DATASET STRUCTURED_POINTS
DIMENSIONS 102 2 2
SPACING 0.1 0 0
ORIGIN 0 0 0
CELL_DATA 101
FIELD FieldData 3
velocity 1 101 double
10 9.9121435112 9.8247091342 9.738401623 9.652830076 9.5683841987 9.4849483558 9.4026659881 9.3216334808 
9.2418047726 9.1634359487 9.0863382665 9.0108842495 8.9367810459 8.8644819005 8.793621548 8.7247045618 8.6573191874 
8.5919972775 8.5283016308 8.4667718884 8.4069622747 8.3494046571 8.2936579624 8.2402341455 8.1887069775 8.1395593769 
8.0923873423 8.0476383124 8.0049354469 7.9646866636 7.9265450255 7.8908770559 7.8573664932 7.8263385538 7.7975066467 
7.7711565477 7.7470287283 7.7253729985 7.705952843 7.6889870301 7.6742567167 7.6619558507 7.6518767743 7.6441959832 
7.6387095139 7.635584777 7.6346131494 7.6359621724 7.6394094896 7.6451326847 7.6528860224 7.6628675753 7.6747981669 
7.6889071735 7.7048716626 7.7229633155 7.742805058 7.7647218666 7.7882722678 7.8138452944 7.840925166 7.8699752614 
7.9003961855 7.9327352115 7.9663008984 8.0017329217 8.0382405525 8.0765629996 8.1158045418 8.1568093064 8.1985727952 
8.2420472887 8.2861180653 8.3318462076 8.3780081081 8.425771253 8.4738077428 8.5233855374 8.5730807844 8.6242519627 
8.6753918467 8.7279349595 8.7803080113 8.8340020971 8.8874003638 8.9420255653 8.9962453987 9.0515835321 9.1064262946 
9.1622613809 9.2175340662 9.2736528314 9.3291685957 9.3853609517 9.4409395517 9.4969990677 9.552467201 9.6081915756 
9.6633831208 9.7185746661 
pressure 1 101 double
-1.3737113537 -9.5977448355 -17.821778317 -25.885206441 -33.95465131 -41.833487017 -49.717593839 -57.387668194 -65.057160586 
-72.494429398 -79.921506029 -87.102327932 -94.260692019 -101.1620814 -108.02699047 -114.62684765 -121.17517714 -127.45249742 
-133.6628124 -139.59787482 -145.45050494 -151.02504133 -156.50215448 -161.69949882 -166.78516988 -171.59038796 -176.27065942 
-180.67065852 -184.93359045 -188.91720898 -192.75291627 -196.31099318 -199.71166847 -202.83709257 -205.79701397 -208.4847534 
-211.00027629 -213.24738855 -215.31692145 -217.1225448 -218.74650959 -220.11183648 -221.2926136 -222.2208475 -222.96270715 
-223.45900381 -223.7680243 -223.83941906 -223.72339385 -223.3787164 -222.8470514 -222.09682964 -221.16043256 -220.01678713 
-218.68795064 -217.16448185 -215.45676246 -213.56843102 -211.49652549 -209.25952856 -206.83914972 -204.2707936 -201.51854733 
-198.63711794 -195.57038299 -192.39501521 -189.03182745 -185.582374 -181.94131664 -178.23821731 -174.33831836 -170.40246994 
-166.26310817 -162.11573535 -157.75655588 -153.41908333 -148.85992361 -144.35384928 -139.61467624 -134.9614458 -130.06230467 
-125.28318702 -120.24416204 -115.36012593 -110.20131304 -105.23290467 -99.974395801 -94.94161769 -89.603496235 -84.525687524 
-79.128033973 -74.023752847 -68.586659369 -63.473568307 -58.017160692 -52.911915689 -47.456380623 -42.374525845 -36.940141137 
-31.89601084 -26.503175817 
crossSection 1 101 double
0.99984501129 0.99891788948 0.99799205661 0.99708555324 0.99617960939 0.9952962557 0.99441348664 0.99355580898 0.99269930541 
0.9918697931 0.99104245473 0.99024353172 0.98944806848 0.98868206834 0.98792099938 0.98719014328 0.98646579452 0.98577217183 
0.98508667265 0.98443222403 0.98378750352 0.98317400632 0.98257178963 0.98200084542 0.98144265045 0.98091567472 0.98040280947 
0.97992102326 0.97945458411 0.97901900767 0.97859987865 0.97821132699 0.97784018025 0.97749926042 0.97717655791 0.97688366818 
0.9766096646 0.97636499515 0.97613974218 0.97594327742 0.97576662908 0.97561815143 0.97548977067 0.97538886563 0.97530823193 
0.97525429438 0.97522071228 0.97521295386 0.97522556228 0.97526301972 0.97532080205 0.97540234627 0.97550414088 0.97562848683 
0.97577299805 0.97593871507 0.97612452435 0.976330047 0.97655562422 0.97679926343 0.97706297812 0.97734293262 0.97764306498 
0.97795743292 0.97829218456 0.97863897524 0.97900647937 0.97938362507 0.97978195623 0.98018732409 0.98061450709 0.98104591109 
0.98149992917 0.98195514209 0.98243394421 0.98291070977 0.98341221691 0.9839082619 0.98443037229 0.98494341892 0.98548401223 
0.98601179056 0.98656873088 0.98710899145 0.98768012926 0.98823065588 0.98881382876 0.98937245149 0.98996548388 0.9905300921 
0.99113079406 0.99169934961 0.99230551472 0.99287606501 0.99348546759 0.99405615853 0.99466655041 0.99523563901 0.99584474604 
0.99641061236 0.99701613111 
