# vtk DataFile Version 5.1
vtk output
ASCII
DATASET STRUCTURED_POINTS
DIMENSIONS 102 2 2
SPACING 0.1 0 0
ORIGIN 0 0 0
CELL_DATA 101
FIELD FieldData 3
velocity 1 101 double
9.0729490169 8.9928352297 8.9142032273 8.8371303054 8.7618192288 8.6880819516 8.6163435498 8.5462183579 8.4782910041 
8.4120343146 8.3481404332 8.2859870065 8.2263307464 8.1684921642 8.1132573456 8.059920653 8.0092690103 7.9605955691 
7.9146653091 7.8707898966 7.8296945862 7.7907247668 7.754552557 7.7205683441 7.6893815278 7.6604353421 7.6342702418 
7.6103871642 7.5892543353 7.5704326419 7.554317372 7.5405293355 7.5293924137 7.5205853456 7.5143640753 7.510461579 
7.5090710001 7.5099744038 7.5133086902 7.5188986247 7.5268326222 7.536970709 7.5493615781 7.5638921916 7.5805811214 
7.599333195 7.620147154 7.6429359988 7.6676894928 7.6943186017 7.7228154119 7.7530782258 7.7851131024 7.8187947173 
7.8541550081 7.8910338097 7.9295010053 7.9693502175 8.0107014001 8.0532905392 8.0972997236 8.1423959537 8.188835315 
8.2362047012 8.2848456825 8.3342543431 8.3848686447 8.4360838034 8.4884442525 8.5412351956 8.595116501 8.6492554441 
8.7044348392 8.7596977113 8.8159554917 8.8721226412 8.9292426082 8.9860994363 9.0438692536 9.1012067826 9.1594182555 
9.2170336385 9.2754829259 9.3331799036 9.3916676739 9.4492569808 9.5075885247 9.5648882481 9.6228735587 9.6797094538 
9.7371632849 9.7933690475 9.8501109613 9.9055284578 9.9613828744 10.015862327 10.070658586 10.124058712 10.17763116 
10.229819261 10.282007362 
pressure 1 101 double
-89.282276255 -96.770931988 -104.25958772 -111.45840933 -118.65232848 -125.53713082 -132.40697691 -138.95416474 -145.47272558 
-151.65966434 -157.80195045 -163.60730044 -169.35065225 -174.75466581 -180.07886099 -185.06364234 -189.95099548 -194.50072226 
-198.93617054 -203.03727659 -207.00844624 -210.64976528 -214.14701477 -217.31988515 -220.33632254 -223.03465363 -225.56612638 
-227.78642795 -229.83148486 -231.57286116 -233.13268689 -234.39679788 -235.47512142 -236.26611402 -236.86909341 -237.19350585 
-237.32959165 -237.19623467 -236.8760154 -236.29583399 -235.53186688 -234.51778633 -233.32441688 -231.89117695 -230.28435076 
-228.44833177 -226.44540192 -224.22444619 -221.84397949 -219.25721119 -216.51879611 -213.58644248 -210.5105014 -207.25371779 
-203.86132578 -200.30202649 -196.6147387 -192.77543536 -188.81512442 -184.71877297 -180.50747802 -176.17733519 -171.73712334 
-167.19661303 -162.54945417 -157.82204375 -152.98969939 -148.09878563 -143.10271213 -138.07151627 -132.93278279 -127.784254 
-122.52347522 -117.28020148 -111.91748535 -106.60161061 -101.15652099 -95.789667511 -90.28120152 -84.884396256 -79.330976079 
-73.924579922 -68.344058738 -62.947697524 -57.357379093 -51.989875346 -46.406546611 -41.085851288 -35.525827096 -30.26895077 
-24.748129673 -19.571072789 -14.105002724 -9.0226848191 -3.6266371426 1.3471746667 6.6581246518 11.510887218 16.721775385 
21.442240151 26.538126639 
crossSection 1 101 double
0.99000118645 0.98916934854 0.9883385586 0.98754090909 0.98674476703 0.9859837358 0.98522523501 0.98450317324 0.98378505692 
0.98310420023 0.98242895638 0.98179139242 0.98116124787 0.98056888835 0.97998580257 0.9794403594 0.97890601897 0.97840898457 
0.97792479882 0.97747743052 0.97704452878 0.97664783714 0.97626706808 0.97592180897 0.97559374209 0.97530041251 0.97502534199 
0.97478417919 0.97456213012 0.97437311402 0.97420385084 0.97406670925 0.97394974636 0.97386396289 0.97379857714 0.9737634013 
0.97374864617 0.97376310543 0.97379782658 0.97386073997 0.97394359192 0.97405358491 0.97418304846 0.97433856866 0.97451296891 
0.97471230241 0.97492982689 0.97517111483 0.97542983174 0.97571108693 0.976008963 0.97632808636 0.97666300434 0.97701780088 
0.97738757632 0.9777757706 0.97817816787 0.97859741878 0.97903016616 0.97947808092 0.97993888467 0.98041303203 0.98089958931 
0.98139751193 0.98190752257 0.98242674859 0.9829579256 0.9834959794 0.98404605818 0.98460047052 0.98516721677 0.9857355342 
0.98631675042 0.98689654429 0.98749007494 0.98807894991 0.98868268515 0.98927828744 0.98989016545 0.99049019095 0.99110819886 
0.99171040112 0.99233257448 0.99293477282 0.99355919376 0.99415928144 0.99478407546 0.99538002812 0.99600335957 0.99659324393 
0.99721331039 0.99779529318 0.99841031871 0.99898267591 0.99959090338 1.0001520297 1.0007517125 1.0013001309 1.0018895238 
1.0024238953 1.0030012457 
