# vtk DataFile Version 5.1
vtk output
ASCII
DATASET STRUCTURED_POINTS
DIMENSIONS 102 2 2
SPACING 0.1 0 0
ORIGIN 0 0 0
CELL_DATA 101
FIELD FieldData 3
velocity 1 101 double
9.0729490169 8.9933162904 8.9152832229 8.8387548299 8.7640756779 8.6909179474 8.6198195505 8.5502809173 8.482977161 
8.4172872247 8.3539771534 8.2923457281 8.233211865 8.175828064 8.1210349414 8.0680663369 8.0177592385 7.9693511286 
7.9236550476 7.8799298585 7.8389486739 7.8000055184 7.7638213899 7.7297357971 7.6984087787 7.6692326047 7.6428004725 
7.6185619962 7.5970402846 7.5777444901 7.561126727 7.5467557651 7.5350138959 7.525527718 7.518612705 7.5139498542 
7.5117924369 7.5118709826 7.5143825814 7.5191011797 7.5261749256 7.5354139866 7.5469258577 7.5605488007 7.5763588455 
7.594213423 7.6141670511 7.6360867222 7.6600160429 7.685821379 7.7135465681 7.7430466736 7.7743773519 7.8073712843 
7.8421078889 7.8783860665 7.9163212004 7.9556667853 7.9965865305 8.0387767773 8.0824619592 8.1272695222 8.1734969148 
8.2206911067 8.2692345696 8.3185825681 8.3692141089 8.4204821076 8.4729728632 8.5259271656 8.5800483005 8.6344563557 
8.6899798742 8.745611255 8.8023107277 8.8589380507 8.9165892578 8.9739890467 9.0323705389 9.0903240317 9.1492176158 
9.2075115154 9.266702669 9.3251298385 9.3844080613 9.4427681629 9.501927272 9.5600273506 9.6188657271 9.6765207364 
9.7348415361 9.7918748045 9.849486141 9.9057297744 9.9624448882 10.017740105 10.07337753 10.127574923 10.181958662 
10.234918386 10.287878109 
pressure 1 101 double
-88.692736591 -96.103402666 -103.51406874 -110.62628983 -117.73193189 -124.52457053 -131.29966412 -137.75228073 -144.17335348 
-150.26648586 -156.31213801 -162.02754518 -167.67848384 -172.99935754 -178.23843739 -183.14958346 -187.96184801 -192.44983927 
-196.82255765 -200.8758598 -204.79855524 -208.40762635 -211.87209328 -215.02945814 -218.02976573 -220.73006563 -223.26254623 
-225.50256536 -227.56578691 -229.34445646 -230.93917866 -232.25755984 -233.38667434 -234.24792179 -234.91637704 -235.32568423 
-235.54039615 -235.50492444 -235.27467424 -234.80346759 -234.13878829 -233.24267544 -232.15572897 -230.84721518 -229.35166176 
-227.64481212 -225.75567387 -223.66599015 -221.3995107 -218.94380368 -216.31730574 -213.51356483 -210.54530726 -207.412569 
-204.12160516 -200.67982223 -197.08586101 -193.35577284 -189.47904389 -185.48205005 -181.34317433 -177.1012115 -172.72107848 
-168.25650142 -163.65615389 -158.99162096 -154.19214846 -149.35051154 -144.37295329 -139.37715203 -134.24241019 -129.11537018 
-123.84413422 -118.60866853 -113.22135123 -107.90006465 -102.41675045 -97.031945613 -91.472351581 -86.045936138 -80.429386023 
-74.982780008 -69.328191584 -63.882234024 -58.208119766 -52.782973879 -47.10745479 -41.722511207 -36.063343366 -30.737121039 
-25.111734172 -19.861778894 -14.287325993 -9.1301067648 -3.6235233951 1.4256726922 6.8476011838 11.77477441 17.09534002 
21.887882218 27.090378436 
crossSection 1 101 double
0.99006671691 0.98924345495 0.9884212194 0.98763306088 0.98684657245 0.9860956068 0.98534743441 0.98463566447 0.98392813935 
0.98325745426 0.98259267296 0.98196482522 0.98134465091 0.98076123717 0.98018729999 0.97964974507 0.97912344217 0.97863298618 
0.97815548178 0.97771316995 0.97728539603 0.97689207108 0.97651472875 0.97617102572 0.97584458767 0.9755509309 0.97527564487 
0.97503224712 0.97480814059 0.97461500402 0.97444189014 0.97429880908 0.97417629378 0.9740828591 0.97401034925 0.97396595416 
0.97394266686 0.97394651401 0.97397148674 0.97402259639 0.97409469799 0.97419191719 0.97430985944 0.97445187192 0.97461422175 
0.97479955843 0.97500475039 0.97523180041 0.97547814947 0.97574517149 0.97603088587 0.97633601951 0.97665921361 0.97700049102 
0.97735919807 0.97773455541 0.97812674 0.97853402879 0.97895759895 0.97939459724 0.97984741616 0.9803118394 0.98079173652 
0.98128124826 0.9817860298 0.98229825199 0.98282571072 0.98335823386 0.98390615807 0.98445655106 0.9850227327 0.98558855257 
0.98617079435 0.98674959592 0.9873457174 0.98793506287 0.98854290547 0.98914037412 0.98975780493 0.99036100301 0.99098591731 
0.99159248819 0.99222281081 0.99283044547 0.99346413072 0.99407057869 0.99470560906 0.99530868984 0.99594307334 0.99654068838 
0.99717245465 0.99776259973 0.99838979508 0.99897057325 0.99959125452 1.0001608893 1.000773117 1.0013299662 1.0019317969 
1.0024743654 1.0030638443 
