# vtk DataFile Version 5.1
vtk output
ASCII
DATASET STRUCTURED_POINTS
DIMENSIONS 102 2 2
SPACING 0.1 0 0
ORIGIN 0 0 0
CELL_DATA 101
FIELD FieldData 3
velocity 1 101 double
8.2366442431 8.3189452237 8.402735273 8.4863042744 8.570963923 8.6554254277 8.7406192575 8.8256116716 8.9110175646 
8.9961945093 9.0815037787 9.166535011 9.2514524582 9.3360244514 9.4202683717 9.5040845976 9.5873867499 9.6701677095 
9.7522732536 9.8337563037 9.9144237106 9.9943627304 10.073363664 10.151528605 10.228647778 10.304824132 10.37985913 
10.453847353 10.526608433 10.598223347 10.668533209 10.737603404 10.805296943 10.871664193 10.936588233 11.000106948 
11.06211997 11.122656671 11.181628533 11.239061385 11.294873048 11.349091427 11.401634695 11.452538799 11.501716073 
11.549216589 11.594940641 11.638958452 11.681152232 11.721618163 11.760214639 11.797069251 11.832011283 11.8652047 
11.896444947 11.925936727 11.953437597 11.979196634 12.002930272 12.024934726 12.044883036 12.063120297 12.079275006 
12.093741675 12.10610443 12.116806325 12.125388815 12.132340992 12.137165102 12.14039189 12.141489874 12.141024914 
12.138439585 12.134325865 12.128110797 12.120400696 12.110620421 12.099375731 12.08610593 12.071397879 12.054725556 
12.036634797 12.01665843 11.995275011 11.972104657 11.947527969 11.921285323 11.893624001 11.864442386 11.833814196 
11.80183847 11.768370148 11.733756522 11.697583581 11.660499317 11.621765829 11.582388814 11.541247159 11.499765328 
11.456375926 11.412986523 
pressure 1 101 double
-169.18945209 -161.20873992 -153.22802775 -145.16550046 -137.08530506 -128.97188211 -120.82992561 -112.69547168 -104.5275516 
-96.400849766 -88.240757574 -80.149483031 -72.028968603 -63.999662044 -55.948437228 -48.006478318 -40.052252451 -32.221834387 
-24.390374543 -16.694481111 -9.0096902271 -1.4700767646 6.0459165261 13.408737031 20.735482243 27.902247006 35.02087376 
41.973571531 48.866693109 55.588558974 62.240179996 68.715684068 75.111114069 81.32594472 87.451718795 93.392761285 
99.236568439 104.89187997 110.44249934 115.80128165 121.04852652 126.101097 131.0357664 135.77352866 140.3873663 
144.80278088 149.08844093 153.17499698 157.12601633 160.87820459 164.48898131 167.90226866 171.16804649 174.23885193 
177.15571055 179.88138285 182.44623362 184.82503041 187.03561728 189.0666853 190.92159094 192.60494692 194.10360397 
195.44011559 196.58282281 197.57418927 198.36213238 199.01086412 199.44614098 199.75553799 199.8411879 199.81531575 
199.5553527 199.19901582 198.59846524 197.91717681 196.98211521 195.98206334 194.71966005 193.40767009 191.82623026 
190.20972282 188.31873083 186.40567556 184.21583768 182.01470274 179.5379878 177.05768571 174.30736192 171.55719239 
168.54785849 165.53744959 162.28505817 159.02430699 155.54617751 152.04519237 148.3600112 144.62905767 140.75686186 
136.80631553 132.76845698 
crossSection 1 101 double
0.98117892602 0.98205473551 0.98293171816 0.98381888469 0.98470920093 0.98560439492 0.98650396489 0.98740393636 0.98830885014 
0.98921043254 0.99011696118 0.99101707563 0.99192167755 0.99281733751 0.99371666106 0.99460497731 0.99549586007 0.99637404588 
0.99725351133 0.99811888764 0.99898413996 0.99983414024 1.0006825578 1.0015147326 1.0023438608 1.0031558815 1.0039634252 
1.0047530874 1.0055369032 1.0063021292 1.0070602187 1.0077990591 1.0085295617 1.009240197 1.0099413843 1.0106221246 
1.0112923951 1.0119416807 1.0125795548 1.0131959555 1.0138000721 1.0143822864 1.0149513992 1.0154982535 1.0160312288 
1.0165416758 1.0170374905 1.0175106085 1.0179683488 1.0184033398 1.0188222002 1.019218389 1.0195976723 1.019954505 
1.0202936223 1.0206106649 1.0209091362 1.0211860734 1.0214435289 1.0216801625 1.0218963439 1.0220925913 1.0222673538 
1.0224232459 1.0225565608 1.0226722405 1.0227641973 1.0228399168 1.0228907267 1.0229268449 1.0229368438 1.0229338235 
1.0229034756 1.0228618793 1.0227917809 1.0227122673 1.0226031507 1.0224864695 1.0223392068 1.0221861935 1.0220018006 
1.0218133706 1.021593011 1.021370153 1.0211151411 1.0208589098 1.020570714 1.020282223 1.0199624681 1.0196428814 
1.0192933502 1.018943874 1.0185665081 1.0181883827 1.0177852816 1.0173797732 1.0169531918 1.0165215852 1.0160739298 
1.0156175212 1.0151513431 
