# vtk DataFile Version 5.1
vtk output
ASCII
DATASET STRUCTURED_POINTS
DIMENSIONS 102 2 2
SPACING 0.1 0 0
ORIGIN 0 0 0
CELL_DATA 101
FIELD FieldData 3
velocity 1 101 double
7.1468304511 7.1328905642 7.1230815754 7.1149411855 7.1108298465 7.1084225328 7.1099124729 7.1131396851 7.120108044 
7.128841224 7.1411402765 7.1552232145 7.1726822376 7.1919336113 7.2143609319 7.2385769741 7.2657621369 7.2947193757 
7.3264353812 7.3598933998 7.395898964 7.4336031293 7.4736449287 7.515329042 7.5591439104 7.6045327441 7.6518497933 
7.7006614808 7.7512041245 7.8031523813 7.8566402443 7.9114364031 7.9675871046 8.0249419554 8.0834727577 8.143098189 
8.2037275059 8.2653379509 8.3277867135 8.3911004056 8.4550932862 8.5198333362 8.585099831 8.6509951375 8.7172705134 
8.7840565195 8.8510826315 8.9185019429 8.9860279285 9.0538308065 9.1216136658 9.1895584124 9.2573634813 9.3252167288 
9.392818055 9.4603549741 9.5275356056 9.5945400442 9.6610922383 9.7273568027 9.7930821652 9.8584082547 9.9231178157 
9.9873156211 10.050829857 10.11371833 10.175867136 10.237273942 10.297896564 10.357658021 10.416602948 10.474563963 
10.531688789 10.5877028 10.642874056 10.69680298 10.749895938 10.801610134 10.852508594 10.901886853 10.950482901 
10.997412456 11.043606211 11.087982781 11.131682123 11.17340999 11.214530268 11.253522396 11.291986136 11.328164321 
11.363900917 11.397195987 11.43014139 11.460493441 11.490589847 11.517948516 11.545144063 11.569468838 11.593717311 
11.614977867 11.636238423 
pressure 1 101 double
-273.40672383 -274.51719793 -275.62767202 -276.2005834 -276.74349317 -276.78531549 -276.76944474 -276.28934801 -275.72668159 
-274.73642428 -273.64188898 -272.15567221 -270.54686056 -268.5811521 -266.47803394 -264.05136951 -261.47599646 -258.60876486 
-255.58497326 -252.2991914 -248.85230891 -245.1713919 -241.32795247 -237.27648353 -233.06395512 -228.66745912 -224.11398734 
-219.39871153 -214.53288195 -209.52558655 -204.37620738 -199.10396841 -193.69987456 -188.18990068 -182.5597794 -176.83924421 
-171.0114819 -165.10737262 -159.10992203 -153.04890511 -146.90917152 -140.71747561 -134.46222049 -128.16553637 -121.82079686 
-115.44419417 -109.03521656 -102.60307649 -96.154261935 -89.690225187 -83.225085833 -76.752014633 -70.29313867 -63.833091744 
-57.402115761 -50.976334876 -44.593922277 -38.222828972 -31.908653254 -25.611854299 -19.384586201 -13.18088631 -7.0581840381 
-0.9656043018 5.0358937891 11.000093234 16.864773956 22.684068513 28.397347434 34.055921377 39.604244743 45.086964791 
50.457809648 55.750200286 60.932072504 66.020294499 71.002724251 75.873557796 80.647091856 85.287925812 89.844115848 
94.242944513 98.574330415 102.71975923 106.81984641 110.70110792 114.56433744 118.17131875 121.7930291 125.11631199 
128.49269127 131.52360592 134.65163332 137.3823264 140.25970199 142.6832196 145.30828164 147.41866723 149.79029647 
151.5827034 153.70021433 
crossSection 1 101 double
0.96984877329 0.96972910493 0.96960945872 0.96954773998 0.9694892587 0.9694847539 0.96948646338 0.96953817805 0.96959879217 
0.96970548299 0.96982342927 0.96998361728 0.9701570636 0.9703690502 0.97059593233 0.97085781717 0.97113586655 0.97144556689 
0.97177233839 0.9721276093 0.97250050843 0.97289896342 0.97331527267 0.97375440439 0.97421130828 0.97468850891 0.97518311758 
0.97569569868 0.97622506976 0.97677028134 0.97733144 0.9779064886 0.97849644563 0.97909851126 0.97971427936 0.98034053121 
0.98097913934 0.98162675013 0.98228525615 0.98295141503 0.98362691671 0.98430884079 0.98499848534 0.98569342971 0.98639442195 
0.98709968827 0.98780929776 0.98852224144 0.98923780846 0.98995584457 0.99067478541 0.9913953932 0.99211520467 0.99283593108 
0.99355419448 0.99427265643 0.99498704111 0.99570092698 0.99640919349 0.9971162637 0.99781626672 0.99851435366 0.99920404469 
0.99989105213 1.000568482 1.001242384 1.0019057054 1.0025645452 1.0032120146 1.003853903 1.0044838833 1.0051069974 
1.0057179592 1.0063205414 1.0069110652 1.0074914225 1.0080601996 1.008616703 1.009162537 1.0096936221 1.0102154287 
1.0107195971 1.0112164045 1.0116922258 1.0121631732 1.0126092887 1.0130536245 1.0134687516 1.0138858306 1.014268769 
1.0146580479 1.0150076875 1.0153687192 1.0156840489 1.0160164758 1.0162965945 1.0166001392 1.0168442687 1.0171187239 
1.0173262227 1.0175714391 
