# vtk DataFile Version 4.2
vtk output
ASCII
DATASET STRUCTURED_POINTS
DIMENSIONS 102 2 2
SPACING 0.1 0 0
ORIGIN 0 0 0
CELL_DATA 101
FIELD FieldData 3
velocity 1 101 double
7.1468304511 7.1896104374 7.2360207325 7.2833238244 7.3339049358 7.3854098983 7.4398457758 7.4952209175 7.5531898132 
7.6120963219 7.6732730845 7.7353681288 7.799426288 7.8643658492 7.9309794925 7.9984209022 8.0672663525 8.1368705222 
8.2076278278 8.2790611677 8.3514154156 8.4243514495 8.497993915 8.5721146052 8.6467437472 8.7217405513 8.7970628652 
8.8726375491 8.9483682857 9.0242335212 9.100097282 9.175977057 9.2517082748 9.3273381451 9.4026814596 9.4778086695 
9.5525192067 9.6269027027 9.70074627 9.7741566313 9.8469098373 9.9191291416 9.9905794523 10.061401095 10.131346837 
10.200575317 10.268825638 10.336276325 10.402651123 10.468150011 10.532479841 10.595863305 10.65798927 10.719103818 
10.77887746 10.837579505 10.89486269 10.95101833 11.005683143 11.059167959 11.111096616 11.161795493 11.210880257 
11.25868722 11.304830347 11.349648432 11.392762123 11.434503261 11.474509642 11.513094581 11.549925691 11.585283935 
11.618881738 11.650951517 11.681267916 11.709996187 11.736993049 11.762335521 11.785984703 11.807905892 11.828189256 
11.846662569 11.863571994 11.87857984 11.892117205 11.903651141 11.913828282 11.92188918 11.928727806 11.933326059 
11.936857626 11.938013378 11.9382789 11.936022312 11.933072106 11.92744365 11.921337008 11.912387793 11.903192573 
11.890984696 11.878776819 
pressure 1 101 double
-273.68386559 -269.34565281 -265.00744002 -260.26819166 -255.50028295 -250.38902113 -245.22586012 -239.77242172 -234.24914681 
-228.48394769 -222.63603803 -216.5898521 -210.45280737 -204.15656105 -197.7656181 -191.25020044 -184.64008803 -177.93617628 
-171.14090827 -164.27880887 -157.33151451 -150.34101927 -143.27380851 -136.18406594 -129.0279269 -121.86732856 -114.65205351 
-107.44813539 -100.20227169 -92.981630353 -85.732452284 -78.520675727 -71.294173664 -64.115786197 -56.936669569 -49.815090364 
-42.706801209 -35.664315674 -28.649049989 -21.706793106 -14.805527592 -7.9834781666 -1.2160003475 5.4670149606 12.082074905 
18.608368929 25.053506004 31.406510951 37.665313997 43.829554975 49.886677022 55.847740326 61.688871356 67.433368496 
73.045211213 78.560739616 83.930988672 89.206089858 94.323414952 99.347530908 104.20156402 108.96499244 113.54631939 
118.04016841 122.34032495 126.5564678 130.56794019 134.49897039 138.21520055 141.85438814 145.26978304 148.61103229 
151.7209775 154.75878682 157.55966355 160.28908815 162.77829336 165.19491142 167.3708801 169.4707633 171.33299195 
173.11268131 174.6617514 176.11823947 177.35583941 178.48656015 179.41550405 180.21833165 180.84257295 181.31583104 
181.64046878 181.78295175 181.81422716 181.62523511 181.37051577 180.8499049 180.31765383 179.46590389 178.66563071 
177.48393111 176.42612249 
crossSection 1 101 double
0.9698189055 0.9702865964 0.9707546257 0.97126630798 0.97178149297 0.97233423354 0.97289306552 0.97348383882 0.97408272621 
0.97470843507 0.9753437368 0.97600123204 0.97666928789 0.97735538693 0.97805254463 0.97876404884 0.97948668772 0.98022039877 
0.98096494999 0.98171768506 0.9824806485 0.98324925444 0.98402721246 0.98480857886 0.98559820703 0.98638927822 0.98718735359 
0.98798513944 0.98878854644 0.98959013208 0.99039586659 0.99119842084 0.99200359269 0.99280437535 0.99360620952 0.99440257748 
0.99519841442 0.99598782658 0.99677512178 0.99755514284 0.99833146602 0.99909976922 0.99986280317 1.0006171721 1.0013647114 
1.0021030409 1.0028329906 1.0035532867 1.0042636614 1.0049640408 1.0056529634 1.0063316523 1.0069973531 1.0076526853 
1.0082935021 1.0089239167 1.0095382943 1.0101423332 1.0107288237 1.0113051287 1.0118623921 1.0124097017 1.0129365071 
1.013453653 1.01394888 1.0144347841 1.0148974245 1.0153510947 1.0157802551 1.0162007822 1.0165956865 1.0169822404 
1.0173422327 1.0176940594 1.0180186073 1.0183350251 1.0186237233 1.0189041204 1.0191566942 1.0194005256 1.0196168345 
1.0198236204 1.0200036613 1.0201729853 1.0203168957 1.0204484045 1.0205564647 1.0206498681 1.0207225031 1.0207775753 
1.0208153553 1.0208319376 1.0208355775 1.0208135825 1.0207839391 1.0207233563 1.0206614244 1.020562328 1.0204692337 
1.0203317921 1.0202087837 
