# vtk DataFile Version 5.1
vtk output
ASCII
DATASET STRUCTURED_POINTS
DIMENSIONS 102 2 2
SPACING 0.1 0 0
ORIGIN 0 0 0
CELL_DATA 101
FIELD FieldData 3
velocity 1 101 double
8.2366442431 8.1725459895 8.1111299776 8.0514758924 7.9946859813 7.9396867083 7.8876901419 7.837528428 7.7904694788 
7.7452992081 7.7032975159 7.6632429885 7.626392317 7.5915478099 7.5599152151 7.5303448514 7.5039702514 7.4797081876 
7.4586043169 7.4396552482 7.4238079721 7.4101479436 7.3995169043 7.391094406 7.3856139665 7.3823512824 7.381931732 
7.3837265087 7.3882554897 7.3949824849 7.4043266012 7.4158395711 7.4298461369 7.445979821 7.4644787113 7.4850508749 
7.5078564385 7.5326699338 7.5595829359 7.5884277486 7.6192373081 7.6518925582 7.686378053 7.7226139256 7.7605468396 
7.800126424 7.8412721145 7.883953136 7.9280725043 7.973608937 8.0204599885 8.0686035423 8.1179428253 8.1684443032 
8.2200282199 8.2726387455 8.3262247312 8.3806968494 8.4360444183 8.4921330737 8.5490047328 8.6064681327 8.6646301669 
8.7232305378 8.7824536703 8.8419579158 8.9020178506 8.9621981224 9.0228759758 9.0835101666 9.1445927958 9.2054649646 
9.2667452029 9.3276459431 9.3889227497 9.44964951 9.5107280447 9.5710854113 9.6317770439 9.6915769923 9.7516992573 
9.8107613805 9.8701378868 9.9282896063 9.9867499125 10.043826678 10.101206143 10.157051624 10.213191241 10.267657512 
10.322403746 10.375351466 10.428556088 10.479854677 10.531374624 10.580902423 10.630599683 10.678244114 10.725985644 
10.771643344 10.817301043 
pressure 1 101 double
-168.79877042 -174.75425627 -180.70974211 -186.24784341 -191.76817989 -196.87098179 -201.93578962 -206.58715657 -211.1790578 
-215.36491241 -219.46957121 -223.17811861 -226.78426769 -230.00616769 -233.10561431 -235.83410333 -238.42171068 -240.65267599 
-242.72631766 -244.45832685 -246.01881331 -247.25310215 -248.3040799 -249.04450242 -249.59232718 -249.845272 -249.89885865 
-249.67313586 -249.24378808 -248.55049133 -247.65171482 -246.50406301 -245.15136603 -243.56452947 -241.77521453 -239.76612983 
-237.55908065 -235.14625859 -232.54172561 -229.74505607 -226.76444395 -223.60500124 -220.27066119 -216.77051314 -213.10554238 
-209.28756581 -205.31561618 -201.20332104 -196.94841826 -192.56578219 -188.05215686 -183.42347155 -178.67540269 -173.82513278 
-168.86680434 -163.81945943 -158.67482992 -153.45484972 -148.14753505 -142.77918738 -137.3323566 -131.83964774 -126.27593161 
-120.68252798 -115.02394005 -109.35310029 -103.62097013 -97.895486339 -92.110404773 -86.352551314 -80.534327358 -74.76581599 
-68.933445381 -63.17538496 -57.347030137 -51.619889414 -45.812870911 -40.136442801 -34.367242051 -28.760607855 -23.044881424 
-17.526373549 -11.878978784 -6.466140688 -0.90117271609 4.3892850973 9.8584451118 15.010694022 20.37131959 25.370467457 
30.610416839 35.442568715 40.550204995 45.202530082 50.166632121 54.627436773 59.437102218 63.695908421 68.340450264 
72.388078633 76.8569172 
crossSection 1 101 double
0.98122177245 0.98056893323 0.97991674532 0.97931084906 0.97870745544 0.97815019579 0.97759755584 0.97709044041 0.9765901952 
0.97613451965 0.97568799278 0.97528482045 0.97489301989 0.97454316685 0.97420678822 0.97391081322 0.97363024507 0.97338844409 
0.97316377524 0.9729761802 0.97280720934 0.97267359063 0.97255983807 0.97247971043 0.97242043186 0.97239306325 0.97238726533 
0.97241168825 0.97245814567 0.97253317062 0.97263044444 0.97275467505 0.97290113187 0.9730729812 0.97326681292 0.97348452074 
0.97372376454 0.97398541501 0.97426797332 0.97457151289 0.97489517305 0.97523842822 0.97560088164 0.97598157633 0.97638043689 
0.97679620923 0.97722903095 0.97767744923 0.97814174288 0.97862032061 0.97911356942 0.97961977937 0.98013945354 0.98067074066 
0.98121431091 0.98176810413 0.98233305402 0.98290677699 0.98349061425 0.98408169488 0.98468196165 0.98528784075 0.98590212266 
0.98652026157 0.98714619587 0.98777408326 0.98840936588 0.98904452388 0.98968691541 0.9903269051 0.9909742358 0.99161666231 
0.99226683601 0.99290935333 0.99356035026 0.99420066595 0.99485054449 0.99548642438 0.99613332166 0.99676259479 0.99740472612 
0.99802528995 0.99866094708 0.99927077323 0.9998983213 1.0004954618 1.0011133352 1.0016959295 1.0023026262 1.002868909 
1.003462984 1.0040112933 1.0045913508 1.0051201377 1.0056848219 1.0061926603 1.0067406457 1.0072262432 1.0077562236 
1.0082184325 1.0087291099 
