# vtk DataFile Version 5.1
vtk output
ASCII
DATASET STRUCTURED_POINTS
DIMENSIONS 102 2 2
SPACING 0.1 0 0
ORIGIN 0 0 0
CELL_DATA 101
FIELD FieldData 3
velocity 1 101 double
10.927050983 11.006117962 11.083109593 11.158631714 11.231936184 11.303750491 11.373248037 11.44121132 11.506793375 
11.570780888 11.632349788 11.69225396 11.749722756 11.805451952 11.8587443 11.910221679 11.959271768 12.006434257 
12.05118675 12.093984157 12.134394136 12.172788391 12.208821303 12.242785841 12.274417439 12.303936703 12.331152993 
12.356222053 12.379019241 12.399643516 12.418027969 12.434223034 12.448211255 12.460002721 12.469621338 12.477044803 
12.482330571 12.485431618 12.48643144 12.485265672 12.482036637 12.476669746 12.469279168 12.45978702 12.448312493 
12.43478122 12.419310671 12.401836761 12.382468498 12.361158878 12.338001618 12.312973714 12.286146603 12.257528365 
12.227160961 12.195090854 12.161323077 12.125950019 12.088932058 12.050415297 12.010307465 11.968816389 11.925788921 
11.881502788 11.835735575 11.788843164 11.740525408 11.691224571 11.640554378 11.589051498 11.536235385 11.482744728 
11.427997053 11.372740014 11.316282325 11.259486569 11.201546878 11.143445366 11.084257349 11.025087263 10.96488939 
10.904890956 10.843925565 10.783340776 10.721853098 10.660924349 10.599161493 10.538130144 10.476340054 10.415444927 
10.353875333 10.293351157 10.232248531 10.172324359 10.11193288 10.052830492 9.9933910567 9.9353233721 9.8770726429 
9.8202421596 9.7634116763 
pressure 1 101 double
85.57422785 92.891799887 100.20937192 107.18536163 114.145543 120.77004312 127.35977242 133.62349196 139.83189725 
145.72622266 151.54437448 157.06143258 162.48211539 167.61483144 172.63233888 177.37448531 181.98444237 186.3306764 
190.52988897 194.47577895 198.2621098 201.80415144 205.17642063 208.31204472 211.26995192 213.99752572 216.54159158 
218.86041595 220.99193968 222.9022439 224.62327448 226.12621058 227.439529 228.53716688 229.44627745 230.14160182 
230.65073057 230.94764041 231.0617391 230.96504992 230.6898042 230.20525321 229.54709389 228.68134786 227.64746404 
226.40812951 225.00648285 223.40211803 221.64145718 219.68158478 217.57145937 215.26657951 212.81735279 210.17895492 
207.40181448 204.44238735 201.34935321 198.08239162 194.68632102 191.12632828 187.44091656 183.60340137 179.6431784 
175.54464489 171.32496664 166.98289642 162.51993104 157.95275602 153.26346428 148.49052918 143.59263895 138.63415239 
133.54612708 128.42310039 123.16410136 117.89827419 112.48811747 107.10186959 101.56097716 96.07722583 90.42657228 
84.868654934 79.12971001 73.521252126 67.71592036 62.080688538 56.231247027 50.592987616 44.722023335 39.104287088 
33.234635237 27.660588775 21.815273737 16.307498845 10.509679381 5.0899614186 -0.63711825919 -5.9480113086 -11.581063 
-16.763609047 -22.279333155 
crossSection 1 101 double
1.0097263995 1.0105646966 1.011404038 1.0122051733 1.013005442 1.0137679966 1.0145274033 1.0152500316 1.0159670406 
1.0166484796 1.0173217848 1.0179608641 1.0185893661 1.0191850165 1.0197678022 1.0203190641 1.0208553879 1.0213614175 
1.021850687 1.0223107611 1.0227525235 1.0231660432 1.0235599758 1.0239264687 1.0242723705 1.0245914921 1.024889278 
1.0251608123 1.0254105088 1.0256343682 1.0258361103 1.0260123357 1.0261663649 1.0262951251 1.0264017881 1.0264833796 
1.0265431284 1.0265779747 1.0265913661 1.026580018 1.0265477141 1.0264908491 1.0264136176 1.0263120403 1.0261907552 
1.0260453969 1.0258810388 1.0256929582 1.0254866144 1.025256997 1.0250098622 1.0247400201 1.0244533955 1.0241447674 
1.0238200604 1.0234742101 1.0231129333 1.0227315488 1.0223353182 1.0219202094 1.0214907425 1.0210438385 1.0205829517 
1.020106297 1.0196159022 1.0191116524 1.0185937527 1.0180641688 1.0175208544 1.0169682954 1.0164017383 1.0158286539 
1.0152411015 1.0146500222 1.0140437915 1.013437318 1.0128147882 1.0121955792 1.0115591845 1.0109299434 1.0102821649 
1.0096456246 1.0089889826 1.0083478894 1.0076849353 1.0070420313 1.0063753394 1.0057333435 1.0050655036 1.0044270916 
1.003760701 1.0031284847 1.0024661421 1.0018426468 1.0011869459 1.0005745881 0.99992811278 0.99932917649 0.99869449662 
0.99811110943 0.9974907785 
