# vtk DataFile Version 5.1
vtk output
ASCII
DATASET STRUCTURED_POINTS
DIMENSIONS 102 2 2
SPACING 0.1 0 0
ORIGIN 0 0 0
CELL_DATA 101
FIELD FieldData 3
velocity 1 101 double
11.763355757 11.685416202 11.606078531 11.527871901 11.450647648 11.374680556 11.300991003 11.228866152 11.159670785 
11.092349569 11.028227074 10.96621547 10.907444286 10.850926971 10.797557877 10.746496308 10.698414189 10.65261886 
10.609593251 10.568777025 10.530502231 10.494319558 10.460445657 10.428521148 10.398677351 10.370626277 10.344438028 
10.319880701 10.296981801 10.275553319 10.255594141 10.236950657 10.219603376 10.203425782 10.188387353 10.174383071 
10.161376542 10.149279969 10.13805461 10.127626601 10.117957199 10.108983931 10.10066954 10.092960957 10.085823306 
10.07921135 10.073093062 10.067429788 10.062192534 10.057348215 10.05287087 10.04873215 10.044909011 10.041377146 
10.038116243 10.035105459 10.032326989 10.029762962 10.027397845 10.025216322 10.023204893 10.021350439 10.019641266 
10.018066148 10.016614976 10.015278162 10.014046978 10.01291325 10.011869449 10.010908629 10.010024287 10.009210545 
10.008461777 10.007773036 10.007139436 10.006556851 10.006021003 10.005528503 10.005075559 10.004659456 10.004276766 
10.003925415 10.003602211 10.003305716 10.003032837 10.002782796 10.002552451 10.002341742 10.002147305 10.001969903 
10.001805734 10.001656551 10.001517846 10.001392602 10.001275254 10.001170363 10.00107085 10.000983331 10.000898608 
10.000826013 10.000753418 
pressure 1 101 double
164.29617095 156.97620151 149.65623206 142.45087523 135.22662072 128.27728129 121.34335332 114.75470718 108.23031948 
102.07266325 96.024833537 90.33910265 84.798566024 79.602089563 74.574480538 69.866507287 65.340367508 61.106931895 
57.059517013 53.277501526 49.679015972 46.319414924 43.136096349 40.166556166 37.362903517 34.749642154 32.289999597 
29.99921228 27.84886667 25.84771827 23.973629834 22.230922251 20.602180493 19.088769917 17.67684598 16.365871776 
15.144722389 14.011697414 12.95776301 11.980564801 11.072694453 10.231488027 9.450816023 8.7279317899 8.0577244933 
7.4375089807 6.8629958002 6.3316482421 5.8398467348 5.385250943 4.9647931607 4.5763513005 4.2173162304 3.8857889871 
3.5795442277 3.2969002479 3.0359547919 2.7952310894 2.5731001524 2.3682742926 2.1793564709 2.0052307184 1.8446972971 
1.6967944743 1.5604904039 1.4349609193 1.3193167777 1.2128561088 1.1148102433 1.0245860704 0.94151605505 0.86510420603 
0.79476672956 0.73009510387 0.67057341984 0.61587308324 0.56553119751 0.51929387847 0.47673670527 0.43767797148 0.40171675345 
0.36874420222 0.3383665518 0.31055241112 0.28489638614 0.26145399229 0.23978566578 0.22004935633 0.20174338101 0.18515141324 
0.16967411745 0.15575428966 0.14264887541 0.13100658873 0.11988003429 0.11018858794 0.10069988201 0.092692850239 0.084542196214 
0.078007799026 0.070926415602 
crossSection 1 101 double
1.0187998272 1.0179509866 1.0171032064 1.0162697343 1.0154351043 1.0146332056 1.0138340316 1.0130755278 1.0123252601 
1.0116179286 1.0109239344 1.0102721424 1.0096376012 1.0090430074 1.0084682355 1.0079304506 1.0074138417 1.0069310011 
1.0064697015 1.0060389369 1.0056293328 1.0052471458 1.0048852137 1.0045477636 1.0042293205 1.0039326386 1.003653517 
1.003393662 1.0031498297 1.002922995 1.0027106327 1.0025132183 1.0023287666 1.0021574216 1.0019976063 1.0018492517 
1.0017110917 1.0015829275 1.0014637319 1.0013532339 1.0012505915 1.0011555002 1.0010672639 1.0009855696 1.0009098372 
1.0008397615 1.0007748562 1.000714833 1.0006592819 1.0006079375 1.0005604524 1.000516586 1.0004760431 1.0004386086 
1.0004040307 1.0003721192 1.0003426589 1.0003154827 1.0002904065 1.0002672847 1.0002459594 1.0002263045 1.0002081843 
1.0001914903 1.0001761057 1.0001619377 1.0001488856 1.0001368702 1.0001258047 1.0001156222 1.0001062472 1.0000976237 
1.0000896859 1.0000823875 1.0000756704 1.0000694975 1.0000638164 1.0000585986 1.0000537961 1.0000493885 1.0000453304 
1.0000416096 1.0000381817 1.000035043 1.0000321479 1.0000295026 1.0000270575 1.0000248304 1.0000227647 1.0000208924 
1.0000191459 1.0000175752 1.0000160964 1.0000147827 1.0000135272 1.0000124336 1.0000113629 1.0000104594 1.0000095396 
1.0000088023 1.0000080032 
