# vtk DataFile Version 5.1
vtk output
ASCII
DATASET STRUCTURED_POINTS
DIMENSIONS 102 2 2
SPACING 0.1 0 0
ORIGIN 0 0 0
CELL_DATA 101
FIELD FieldData 3
velocity 1 101 double
7.5729490169 7.5323320718 7.4951683105 7.4598462526 7.4280163597 7.398059454 7.3716002806 7.3470509268 7.3259757335 
7.3068487956 7.2911471465 7.2774304716 7.2670684089 7.2587235437 7.2536440154 7.2506071168 7.2507306323 7.252913565 
7.258139051 7.265430655 7.275636485 7.2879039948 7.302949167 7.3200397562 7.3397651956 7.3615076209 7.3857375805 
7.4119438978 7.440487437 7.4709547613 7.5036072792 7.5381195618 7.5746643644 7.6129941631 7.6532040458 7.695114266 
7.738753093 7.7839986789 7.8308229444 7.8791525061 7.9289128609 7.9800702246 8.0325129562 8.0862386274 8.1411070826 
8.1971396163 8.2541755568 8.312252832 8.371197716 8.4310581125 8.4916542971 8.5530377764 8.615029637 8.6776787305 
8.7408136962 8.8044744045 8.8685039092 8.9329265169 8.9976068681 9.0625466824 9.127639849 9.1928578672 9.2581321899 
9.3233957048 9.3886265319 9.4537096816 9.5186799349 9.5833642049 9.6478648791 9.711939564 9.7757701628 9.8390327955 
9.9020017073 9.9642584639 10.026183278 10.087249364 10.147957132 10.207657159 10.266984597 10.325152947 10.382946586 
10.439427788 10.495544064 10.55019316 10.60449845 10.657181379 10.709551978 10.760145965 10.810468001 10.85886196 
10.907031257 10.953126195 10.999048069 11.042757507 11.086346514 11.127596894 11.168776524 11.207507618 11.246209943 
11.282375231 11.318540519 
pressure 1 101 double
-230.18419774 -233.85120167 -237.51820559 -240.69378482 -243.84744049 -246.52625921 -249.16130601 -251.34012393 -253.4540964 
-255.13184295 -256.72499525 -257.90280696 -258.97802511 -259.65925017 -260.22195041 -260.41212388 -260.4701367 -260.17692999 
-259.74037012 -258.97351783 -258.05464152 -256.8258485 -255.43889975 -253.76173157 -251.92277946 -249.81253874 -247.53930817 
-245.01289974 -242.32459804 -239.4003853 -236.3175271 -233.01518209 -229.5594147 -225.89976424 -222.0936956 -218.09856572 
-213.96559661 -209.65765736 -205.22181942 -200.6244319 -195.9102325 -191.04730002 -186.07957472 -180.97539951 -175.77917284 
-170.4583196 -165.05867425 -159.54584174 -153.96779616 -148.28769761 -142.55609198 -136.73334499 -130.87273512 -124.93176132 
-118.96632025 -112.93125485 -106.88468157 -100.7792928 -94.674727608 -88.522345685 -82.382291768 -76.205746933 -70.051997695 
-63.873566723 -57.727138495 -51.56849883 -45.449568763 -39.331759402 -33.259608358 -27.202996461 -21.195956937 -15.220209032 
-9.295618291 -3.4196748438 2.406166361 8.1641143603 13.875976872 19.498510732 25.082265106 30.552762161 35.995398815 
41.298058645 46.587698856 51.707573636 56.83346998 61.756500679 66.709025393 71.422085514 76.192705136 80.683653672 
85.264888308 89.522633474 93.907999101 97.922574224 102.10650658 105.86915924 109.84691822 113.35021331 117.11776714 
120.35570398 123.90959316 
crossSection 1 101 double
0.97452384078 0.97412589665 0.97372819622 0.9733839894 0.97304233951 0.97275227213 0.97246707099 0.97223134396 0.97200271449 
0.97182132094 0.97164912049 0.97152184275 0.97140567341 0.97133208287 0.9712713025 0.9712507621 0.97124449633 0.97127616519 
0.97132332031 0.97140616034 0.97150543689 0.97163822102 0.97178812826 0.97196944998 0.97216832079 0.97239660492 0.97264261115 
0.97291612551 0.97320729351 0.97352416129 0.97385838751 0.97421660024 0.9745916667 0.97498909748 0.97540268694 0.97583710405 
0.97628681482 0.97675589516 0.97723925542 0.97774059799 0.97825507958 0.97878621867 0.97932925023 0.97988766822 0.98045664778 
0.98103978748 0.98163209443 0.98223737086 0.98285037727 0.98347518882 0.98410627028 0.98474800911 0.98539455496 0.98605061673 
0.98671003988 0.98737783269 0.98804757897 0.98872453157 0.98940208868 0.99008565797 0.99076856407 0.99145624185 0.99214209388 
0.99283141297 0.99351787462 0.99420641441 0.99489122375 0.99557661526 0.99625759216 0.99693752263 0.99761257575 0.99828479293 
0.99895192636 0.99961424266 1.0002715621 1.0009218585 1.0015675769 1.0022038072 1.0028362496 1.0034564446 1.0040740521 
1.0046763243 1.0052776577 1.0058602063 1.0064439474 1.0070050645 1.007570017 1.0081080944 1.0086531824 1.0091667194 
1.0096909847 1.0101785971 1.0106811943 1.0111416251 1.0116218142 1.0120539454 1.0125110821 1.0129139485 1.0133474721 
1.0137202763 1.014129695 
