# vtk DataFile Version 4.2
vtk output
ASCII
DATASET STRUCTURED_POINTS
DIMENSIONS 102 2 2
SPACING 0.1 0 0
ORIGIN 0 0 0
CELL_DATA 101
FIELD FieldData 3
velocity 1 101 double
10.927050983 11.006115127 11.083109523 11.158628981 11.231936074 11.30374788 11.373247916 11.44120885 11.506793271 
11.570778583 11.632349727 11.692251844 11.749722758 11.805450047 11.858744383 11.910220006 11.959271945 12.006432834 
12.051187031 12.093982996 12.134394526 12.172787499 12.208821803 12.242785218 12.274418044 12.303936343 12.331153694 
12.356221942 12.379020028 12.399643633 12.418028827 12.43422335 12.448212165 12.460003203 12.469622279 12.477045412 
12.482331517 12.485432311 12.486432364 12.485266406 12.482037508 12.476670474 12.469279954 12.459787695 12.448313161 
12.434781796 12.419311187 12.401837196 12.382468827 12.361159131 12.338001727 12.312973748 12.286146459 12.257528147 
12.227160536 12.195090355 12.161322345 12.125949215 12.088930999 12.050414167 12.010306062 11.968814916 11.925787163 
11.881500964 11.835733453 11.78884098 11.74052292 11.691222027 11.640551525 11.589048597 11.536232174 11.482741476 
11.427993493 11.372736423 11.31627843 11.259482651 11.201542665 11.143441138 11.084252836 11.025082745 10.9648846 
10.90488617 10.843920523 10.783335744 10.721847829 10.660919095 10.599156023 10.538124693 10.476334411 10.415439304 
10.353869546 10.293345389 10.232242626 10.172318471 10.111926885 10.05282451 9.9933849999 9.9353173203 9.8770665503 
9.8202360621 9.763405574 
pressure 1 101 double
85.57489484 92.892498881 100.21010292 107.18599689 114.14633228 120.77061467 127.36061432 133.62399975 139.83278622 
145.72666656 151.54530498 157.06181254 162.48308186 167.6151475 172.63333571 177.37473768 181.98546384 186.33086549 
190.53092925 194.4759054 198.26316294 201.80421607 205.17748057 208.31204858 211.27101252 213.99747 216.54264663 
218.86030198 220.99298295 222.90207307 224.62429982 226.12598421 227.44053048 228.53688612 229.44724943 230.14126756 
230.65166781 230.9472532 231.06263682 230.96460997 230.69065812 230.2047604 229.54790019 228.68080179 227.64821939 
226.40752955 225.00718438 223.40146335 221.64210251 219.68087447 217.57204648 215.26581263 212.81788002 210.17813063 
207.40228048 204.44150496 201.34975695 198.08145063 194.68666178 191.1253284 187.44119396 183.60234256 179.64339241 
175.54352741 171.32511756 166.98172083 162.52001952 157.95152321 153.2634913 148.48924039 143.59260582 138.63280917 
133.54603547 128.42170456 123.16395331 117.89682784 112.48791539 107.10037506 101.56072379 96.075685751 90.426270603 
84.8670722 79.12936327 73.51962986 67.715532035 62.079030038 56.230820824 50.591296305 44.721563166 39.102566484 
33.234145182 27.65884247 21.814758007 16.30573048 10.509142283 5.0881746539 -0.63767234939 -5.9498128289 -11.581629668 
-16.765421729 -22.279907985 
crossSection 1 101 double
1.0097264759 1.0105647767 1.0114041219 1.0122052463 1.0130055328 1.0137680625 1.0145275004 1.0152500902 1.0159671433 
1.016648531 1.0173218926 1.0179609081 1.0185894783 1.0191850532 1.019767918 1.0203190934 1.0208555068 1.0213614396 
1.0218508082 1.0223107759 1.0227526464 1.0231660508 1.0235600996 1.0239264692 1.0242724945 1.0245914856 1.0248894015 
1.0251607989 1.0254106311 1.0256343482 1.0258362306 1.0260123092 1.0261664823 1.0262950921 1.0264019022 1.0264833403 
1.0265432384 1.0265779292 1.0265914715 1.0265799663 1.0265478143 1.0264907913 1.0264137122 1.0263119762 1.0261908438 
1.0260453266 1.025881121 1.0256928814 1.0254866901 1.0252569138 1.0250099309 1.0247399303 1.0244534572 1.024144671 
1.0238201148 1.023474107 1.0231129804 1.022731439 1.0223353579 1.0219200928 1.0214907748 1.0210437152 1.0205829766 
1.0201061671 1.0196159197 1.019111516 1.018593763 1.0180640259 1.0175208575 1.0169681463 1.0164017345 1.0158284987 
1.0152410909 1.0146498612 1.0140437745 1.0134371515 1.012814765 1.0121954075 1.0115591554 1.0109297668 1.0102821303 
1.0096454434 1.0089889429 1.0083477041 1.007684891 1.0070418422 1.0063752909 1.0057331511 1.0050654512 1.0044268962 
1.0037606454 1.0031282867 1.0024660837 1.0018424467 1.0011868852 1.0005743863 0.99992805026 0.99932897341 0.99869443281 
0.99811090547 0.99749071388 
