# vtk DataFile Version 5.1
vtk output
ASCII
DATASET STRUCTURED_POINTS
DIMENSIONS 102 2 2
SPACING 0.1 0 0
ORIGIN 0 0 0
CELL_DATA 101
FIELD FieldData 3
velocity 1 101 double
7.5729490169 7.5316769687 7.4939614938 7.4581098179 7.4258653021 7.3955180625 7.3687887887 7.3439965855 7.3227986309 
7.3035790889 7.287900289 7.2742388746 7.2640392163 7.2558903749 7.2511027719 7.2483913649 7.2489227668 7.2515457745 
7.2572785594 7.2651070113 7.2759006121 7.2887816985 7.3044744121 7.3222337306 7.3426446628 7.3650885506 7.3900196527 
7.4169375574 7.4461757126 7.4773425588 7.5106616826 7.545840195 7.5830033143 7.6219462638 7.6627075479 7.7051598931 
7.7492666118 7.7949675127 7.8421619015 7.8908465907 7.9408676078 7.9922691077 8.0448540695 8.0987047509 8.1535908382 
8.2096238188 8.2665494482 8.3244998323 8.3832058902 8.442811857 8.5030427965 8.5640465433 8.6255513445 8.6876998957 
8.7502328952 8.8132787867 8.8766003802 8.9403022307 9.0041794564 9.0683024376 9.1325094473 9.1968256642 9.2611440897 
9.3254328838 9.389652107 9.4537002934 9.5176176281 9.5812196775 9.6446404713 9.707598649 9.7703363123 9.8324607827 
9.8943367538 9.9554456613 10.016289316 10.076208849 10.135857358 10.19442181 10.252719961 10.309771782 10.366571758 
10.42196163 10.477122766 10.530709672 10.584098187 10.635749516 10.687238233 10.736829891 10.786297947 10.833714502 
10.881047066 10.92618191 10.971269899 11.014025437 11.05676526 11.097053116 11.137346437 11.175087681 11.21284122 
11.247966599 11.283091977 
pressure 1 101 double
-232.32954427 -236.0872381 -239.84493193 -243.09545707 -246.32176861 -249.05807637 -251.74600253 -253.96364232 -256.10964667 
-257.80686246 -259.41077666 -260.58854634 -261.65344558 -262.31546899 -262.8475212 -263.00016297 -263.00845316 -262.66064624 
-262.15697855 -261.32009455 -260.31877576 -259.00646795 -257.5240765 -255.75210129 -253.80724648 -251.59326884 -249.2063447 
-246.56973272 -243.76267115 -240.72428441 -237.52031148 -234.10228773 -230.52568676 -226.75123072 -222.82711521 -218.72029292 
-214.47439153 -210.05993304 -205.51838867 -200.82150153 -196.01068544 -191.05688084 -186.00322246 -180.81815555 -175.54798821 
-170.15731341 -164.69673568 -159.12597764 -153.50072985 -147.77517008 -142.01052513 -136.15510424 -130.27577182 -124.31500682 
-118.34504992 -112.30296581 -106.26572869 -100.16580331 -94.083849734 -87.948970639 -81.844031555 -75.696463707 -69.589393469 
-63.450756072 -57.361496587 -51.252747628 -45.20029979 -39.141726634 -33.144128652 -27.155343029 -21.229655412 -15.329591098 
-9.4918882327 -3.6987997204 2.0358318866 7.7043713546 13.321827997 18.84893064 24.336079148 29.705550675 35.050208515 
40.246561479 45.437468672 50.445942546 55.472724856 60.279314051 65.132436918 69.723927833 74.394640541 78.758658514 
83.238928187 87.363995025 91.646430204 95.522032642 99.599796409 103.21646554 107.08317849 110.43257979 114.0822135 
117.1572466 120.58400868 
crossSection 1 101 double
0.97429099768 0.97388336107 0.97347598023 0.97312378896 0.97277441018 0.97247824157 0.97218744129 0.97194761835 0.97171562679 
0.97153220986 0.97135892369 0.97123170751 0.97111670448 0.97104522003 0.97098777543 0.97097129594 0.97097040093 0.97100795136 
0.97106233291 0.97115270229 0.97126084443 0.97140260065 0.97156276673 0.97175427309 0.97196452861 0.97220396168 0.97246219737 
0.97274756581 0.9730515206 0.97338068437 0.9737279679 0.97409865765 0.97448677202 0.97489660821 0.97532296885 0.97576948044 
0.97623143577 0.97671207809 0.97720692794 0.97771909975 0.97824411247 0.97878517181 0.97933759996 0.97990487894 0.98048197369 
0.98107279184 0.98167181598 0.9822834924 0.98290173216 0.98353159622 0.98416637187 0.98481177266 0.98546044803 0.98611876247 
0.98677875348 0.98744739316 0.98811617548 0.98879259246 0.98946770828 0.99014939972 0.99082846387 0.99151297585 0.99219368114 
0.99287861164 0.99355873364 0.99424173488 0.99491913606 0.99559791639 0.9962705497 0.99694287508 0.9976087869 0.99827248234 
0.99892981485 0.99958276575 1.0002297586 1.0008699124 1.0015049037 1.0021302716 1.0027516984 1.0033603578 1.003966755 
1.0045568529 1.005146852 1.0057166086 1.0062889351 1.0068366485 1.0073901182 1.0079141707 1.0084476848 1.0089465494 
1.0094590884 1.0099313379 1.010421954 1.0108662697 1.0113340785 1.0117492614 1.0121934315 1.0125784143 1.0129981562 
1.0133520163 1.0137465702 
