# vtk DataFile Version 5.1
vtk output
ASCII
DATASET STRUCTURED_POINTS
DIMENSIONS 102 2 2
SPACING 0.1 0 0
ORIGIN 0 0 0
CELL_DATA 101
FIELD FieldData 3
velocity 1 101 double
10 9.9121293661 9.8247086288 9.7383875442 9.6528291066 9.5683701065 9.4849469524 9.4026518133 9.3216316651 
9.2417904548 9.1634337361 9.0863237532 9.0108816503 8.9367662918 8.8644789214 8.7936065156 8.724701207 8.6573038466 
8.5919935501 8.5282859603 8.4667677908 8.4069462617 8.3494001923 8.2936416032 8.2402293177 8.1886902775 8.1395541926 
8.0923703157 8.0476327806 8.004918116 7.9646807965 7.9265274201 7.89087087 7.8573486498 7.8263320695 7.7974886083 
7.7711497892 7.7470105434 7.7253659941 7.7059345654 7.6889798119 7.674238404 7.661948455 7.6518584869 7.6441884499 
7.6386913148 7.6355771488 7.6345951031 7.6359544935 7.6393916622 7.6451250004 7.6528684799 7.662859931 7.674780975 
7.688899614 7.7048548853 7.7229558845 7.7427887572 7.7647146054 7.7882565025 7.813838241 7.840909991 7.8699684502 
7.9003816503 7.9327286718 7.9662870463 8.0017266773 8.0382274193 8.0765570674 8.1157921551 8.1568036956 8.1985611727 
8.2420420005 8.286107214 8.331841234 8.3779980229 8.4257665764 8.4737984055 8.5233811291 8.5730721634 8.6242477824 
8.6753838955 8.7279309544 8.780300668 8.833998201 8.8873935502 8.942021698 8.9962390196 9.0515795985 9.1064202381 
9.1622572698 9.2175282025 9.2736484153 9.3291627765 9.3853560863 9.4409336098 9.496993591 9.5524609502 9.6081853067 
9.6633763556 9.7185674046 
pressure 1 101 double
-1.3820611835 -9.6059606889 -17.829860194 -25.893696205 -33.962484893 -41.842239332 -49.725195679 -57.396673873 -65.064544619 
-72.503680914 -79.928683905 -87.111819001 -94.267673337 -101.17180663 -108.03378296 -114.63680222 -121.18178681 -127.46267683 
-133.6692437 -139.60827469 -145.45676087 -151.03565717 -156.50823676 -161.71032592 -166.7910791 -171.6014212 -176.27639524 
-180.68189235 -184.93915176 -188.92863731 -192.75830134 -196.32260937 -199.71687512 -202.84888945 -205.80203967 -208.49672332 
-211.00511828 -213.25952342 -215.32157691 -217.13483611 -218.75097574 -220.1242754 -221.29688783 -222.23342494 -222.96678705 
-223.47171054 -223.77190778 -223.8522458 -223.72707922 -223.39165386 -222.85053745 -222.10986858 -221.16371866 -220.02991846 
-218.6910368 -217.17769665 -215.4596494 -213.58172063 -211.49921468 -209.27288462 -206.84164348 -204.28420808 -201.52084883 
-198.65058322 -195.57249633 -192.4085241 -189.03375768 -185.59591982 -181.94306979 -178.25179388 -174.33990152 -170.41607163 
-166.26452953 -162.12935711 -157.75782473 -153.43272077 -148.86105041 -144.3674987 -139.61567261 -134.97510431 -130.06318339 
-125.29685261 -120.24493711 -115.37379757 -110.20199964 -105.24658241 -99.975010391 -94.95530279 -89.604056527 -84.539382548 
-79.128559005 -74.037461785 -68.587169555 -63.4872967 -58.017677861 -52.925670769 -47.456928069 -42.388316671 -36.940743687 
-31.909848418 -26.503859923 
crossSection 1 101 double
0.99984406933 0.99891696393 0.99799114741 0.99708459946 0.99617873052 0.99529527507 0.99441263604 0.99355480261 0.99269848132 
0.99186876188 0.99104165565 0.9902424764 0.98944729316 0.98868098955 0.98792024677 0.98718904154 0.98646506379 0.98577104763 
0.98508596313 0.98443107783 0.98378681471 0.98317283856 0.98257112118 0.98199965655 0.98144200214 0.98091446522 0.98040218118 
0.97991979364 0.97945397582 0.97901775849 0.97859929041 0.97821005885 0.97783961216 0.97749797396 0.97717601012 0.97688236408 
0.9766091373 0.97636367414 0.97613923555 0.97594194024 0.97576614333 0.97561679887 0.975489306 0.97538749849 0.97530778851 
0.97525291347 0.97522029026 0.97521155999 0.97522516179 0.97526161372 0.97532042316 0.97540092893 0.97550378363 0.97562705896 
0.97577266239 0.97593727744 0.97612421019 0.97632860036 0.97655533139 0.97679780851 0.97706270636 0.97734147011 0.97764281395 
0.97795596349 0.97829195382 0.9786374995 0.97900626839 0.97938214361 0.97978176438 0.98018583744 0.98061433362 0.98104441973 
0.98149977322 0.98195364646 0.98243380479 0.98290921023 0.98341209291 0.98390675876 0.98443026248 0.9849419124 0.98548391523 
0.9860102808 0.98656864518 0.98710747851 0.98768005321 0.98822913968 0.98881376057 0.98937093184 0.98996542161 0.99052856868 
0.99113073561 0.99169782194 0.99230545782 0.99287453245 0.9934854098 0.99405462026 0.99466648913 0.99523409399 0.99584467847 
0.99640905935 0.99701605426 
