# vtk DataFile Version 5.1
vtk output
ASCII
DATASET STRUCTURED_POINTS
DIMENSIONS 102 2 2
SPACING 0.1 0 0
ORIGIN 0 0 0
CELL_DATA 101
FIELD FieldData 3
velocity 1 101 double
11.763355757 11.825120548 11.884072145 11.941357215 11.995792207 12.048520996 12.09839515 12.146507848 12.191785124 
12.235237276 12.275890048 12.314651295 12.350660594 12.384713568 12.416069326 12.445408725 12.472109977 12.496741823 
12.518796885 12.538737936 12.556164563 12.571441876 12.584267393 12.594918022 12.603179437 12.609250246 12.612994351 
12.614541921 12.613825392 12.610916003 12.605805504 12.598515171 12.589087451 12.577502007 12.563844006 12.548059211 
12.530268147 12.510389821 12.488573278 12.464717435 12.438993424 12.411286392 12.381783406 12.350361925 12.317218954 
12.282230238 12.245596754 12.207198511 12.167234398 12.125594797 12.082470225 12.03776779 11.991663025 11.944086464 
11.895191601 11.844939542 11.79345416 11.740734792 11.686867523 11.63189814 11.575866143 11.51887258 11.460900918 
11.402116878 11.342437795 11.282104063 11.220956167 11.159319708 11.096947058 11.034260002 10.970911104 10.907429623 
10.843356345 10.779339424 10.714795841 10.650503956 10.585745126 10.521438836 10.456719538 10.392658005 10.328231443 
10.264670885 10.200787391 10.137979493 10.074885235 10.013075531 9.9510112501 9.8904374936 9.8296372977 9.7705278407 
9.7112180672 9.6537902658 9.596188441 9.5406471026 9.4849610163 9.4314969069 9.3779238197 9.32671225 9.2754382475 
9.2266377542 9.177837261 
pressure 1 101 double
163.62052059 169.23578952 174.85105844 180.05405623 185.23083377 190.01789618 194.75200232 199.11982912 203.40877394 
207.35455899 211.19729943 214.71884164 218.11557695 221.21137003 224.16337567 226.83267725 229.34217425 231.58505701 
233.65511298 235.47250055 237.10695816 238.50064914 239.70407786 240.67676079 241.45442763 242.00969029 242.36754527 
242.50988078 242.45455395 242.18936544 241.72817258 241.06177758 240.20273238 239.14236768 237.89419836 236.448026 
234.82019426 232.99730882 231.0000296 228.81046695 226.45472737 223.90947421 221.20705098 218.31805433 215.28152841 
212.06170437 208.70447216 205.16771272 201.50399274 197.66516993 193.71000409 189.58497042 185.35421893 180.95980313 
176.47013246 171.8241293 167.09299253 162.21414559 157.25975483 152.16773115 147.00902154 141.72437719 136.38096217 
130.92509802 125.41721565 119.81232265 114.16077311 108.42976652 102.6558409 96.822282957 90.947684092 85.03569488 
79.082450855 73.116607224 67.106978522 61.112201325 55.068582709 49.070012757 43.014831261 37.037694539 30.993305256 
25.062767989 19.051349665 13.192363953 7.235816553 1.4729574421 -4.4071960639 -10.049900999 -15.832606348 -21.331853767 
-26.996608223 -32.330001024 -37.856924819 -43.003158377 -48.373052275 -53.312103973 -58.506490514 -63.219811742 -68.220957911 
-72.691667759 -77.482587016 
crossSection 1 101 double
1.0187214327 1.0193732369 1.0200256668 1.0206307548 1.0212333279 1.0217910135 1.0223429792 1.0228526359 1.0233534593 
1.0238145365 1.0242638723 1.0246759098 1.0250735799 1.0254362191 1.0257821944 1.0260951875 1.0263895732 1.0266527899 
1.0268958142 1.0271092464 1.0273012523 1.0274650169 1.0276064565 1.0277207977 1.027812228 1.0278775178 1.0279195989 
1.0279363372 1.0279298309 1.0278986459 1.0278444151 1.0277660626 1.0276650721 1.0275404348 1.0273937515 1.0272238385 
1.0270326325 1.0268185787 1.0265841234 1.0263271888 1.0260508617 1.0257524302 1.025435713 1.0250972921 1.0247417699 
1.0243649888 1.0239723496 1.0235589583 1.0231309911 1.0226828578 1.0222214507 1.0217405596 1.0212476964 1.0207361445 
1.020213901 1.0196738945 1.0191244334 1.0185582827 1.0179838483 1.0173939624 1.016796874 1.0161857542 1.0155683982 
1.0149386306 1.0143034525 1.013657699 1.0130071942 1.012348183 1.0116848866 1.0110154016 1.0103418779 1.0096647467 
1.0089835779 1.0083016588 1.0076154336 1.0069316019 1.0062429033 1.0055600366 1.0048714301 1.0041923925 1.0035064143 
1.0028340402 1.0021531855 1.0014902625 1.0008169747 1.0001662262 0.9995028866 0.99886695386 0.99821587257 0.99759729649 
0.99696070455 0.99636190702 0.99574195014 0.99516521549 0.99456394942 0.99401140564 0.99343079356 0.99290439355 0.99234630562 
0.99184780837 0.99131402365 
