# vtk DataFile Version 5.1
vtk output
ASCII
DATASET STRUCTURED_POINTS
DIMENSIONS 102 2 2
SPACING 0.1 0 0
ORIGIN 0 0 0
CELL_DATA 101
FIELD FieldData 3
velocity 1 101 double
10.927050983 11.006568223 11.084081444 11.160104899 11.233953971 11.306293825 11.376337293 11.444825521 11.510934691 
11.575424143 11.63748299 11.697846328 11.755751523 11.811880115 11.865541094 11.917343928 11.966682971 12.014085625 
12.059037903 12.10198162 12.142495201 12.180936062 12.216971869 12.250880079 12.282411804 12.31177108 12.338785058 
12.363592116 12.386087169 12.40635129 12.424338548 12.440081218 12.453583933 12.464838542 12.473891882 12.480703467 
12.485354321 12.487779353 12.488086119 12.486192312 12.482224697 12.476090836 12.467929651 12.45764543 12.445382387 
12.431048245 12.414785747 12.396512701 12.376363632 12.354273096 12.330360589 12.304584174 12.277041375 12.247720666 
12.216690467 12.183976768 12.149611525 12.113665562 12.076126781 12.037118372 11.996576359 11.954684026 11.91131751 
11.866728045 11.820723754 11.773631728 11.725183925 11.675791133 11.625101116 11.57361596 11.52089151 11.467528316 
11.412983105 11.35796138 11.301814333 11.245357945 11.18783257 11.130168862 11.071492536 11.01285138 10.953254601 
10.893867392 10.833583007 10.773681587 10.712943995 10.652759534 10.591803881 10.531565702 10.470627064 10.41056143 
10.349874 10.290202868 10.229999155 10.170938906 10.111448949 10.053209108 9.9946597195 9.9374416708 9.8800557152 
9.8240514287 9.7680471422 
pressure 1 101 double
86.117621293 93.509082818 100.90054434 107.95808112 115.00016552 121.71095026 128.38699751 134.73890175 141.03473142 
147.01642731 152.92011734 158.52118201 164.02285353 169.23386602 174.32548382 179.13810795 183.81330259 188.22035223 
192.47426642 196.46975263 200.29891205 203.87807297 207.28028017 210.43959603 213.41384484 216.15104069 218.69744838 
221.01148743 223.13124152 225.02231173 226.71762865 228.18712495 229.46121794 230.51172186 231.36877592 232.00403413 
232.4491861 232.67408894 232.71341106 232.53397174 232.17445733 231.5977921 230.84734233 229.88165181 228.74906259 
227.40361391 225.89856237 224.18367169 222.31670169 220.24371659 218.02622274 215.60750388 213.05171363 210.30061506 
207.41956851 204.35041576 201.15794296 197.78600824 194.29670369 190.63817734 186.8673716 182.9393291 178.9030571 
174.72342091 170.43838726 166.02588265 161.50942368 156.88352786 152.15357084 147.33445466 142.40947415 137.417936 
132.3169074 127.17429893 121.91664976 116.64479285 111.25035214 105.87144693 100.36039333 94.896916924 89.289726259 
83.764322214 78.081715044 72.517073609 66.779963743 61.198693021 55.428137877 49.852626092 44.069779997 38.522049214 
32.748120708 27.2496725 21.50588673 16.077540405 10.385107756 5.0468317944 -0.5730760441 -5.8023385903 -11.328604016 
-16.431115266 -21.842680641 
crossSection 1 101 double
1.0097886145 1.0106354599 1.0114833711 1.0122939723 1.0131037704 1.0138763755 1.0146458586 1.0153787944 1.0161060438 
1.0167977308 1.0174810904 1.0181300577 1.0187681136 1.0193730135 1.0199645745 1.0205241946 1.0210682753 1.0215815488 
1.0220773544 1.0225433682 1.0229902817 1.023408282 1.0238058539 1.0241752498 1.0245231898 1.0248435551 1.0251417252 
1.0254127992 1.0256612083 1.0258828947 1.0260816944 1.0262540602 1.0264035412 1.0265268145 1.0266274035 1.0267019708 
1.0267542281 1.0267806314 1.0267852478 1.0267641817 1.0267219767 1.0266542848 1.0265662032 1.0264528751 1.0263199846 
1.0261621522 1.0259856401 1.0257845737 1.0255657436 1.0253228481 1.0250631158 1.0247799269 1.0244808167 1.0241589956 
1.0238221357 1.0234634648 1.0230905822 1.0226969596 1.022289875 1.0218633088 1.0214239308 1.0209665326 1.0204968518 
1.0200108298 1.0195129123 1.0190005636 1.0184765444 1.0179402467 1.0173923227 1.0168345253 1.0162649482 1.0156881619 
1.0150992308 1.0145060175 1.0139000714 1.0132930327 1.0126724431 1.0120542082 1.0114213715 1.0107945839 1.0101519146 
1.0095192186 1.0088691416 1.008233168 1.0075781126 1.0069414632 1.0062838565 1.0056490885 1.00499135 1.0043609596 
1.003705496 1.0030819016 1.0024311032 1.0018166275 1.0011728646 1.0005697173 0.99993533843 0.99934559756 0.99872292841 
0.99814852214 0.99753986594 
