# vtk DataFile Version 5.1
vtk output
ASCII
DATASET STRUCTURED_POINTS
DIMENSIONS 102 2 2
SPACING 0.1 0 0
ORIGIN 0 0 0
CELL_DATA 101
FIELD FieldData 3
velocity 1 101 double
7.5729490169 7.5322422008 7.4950132653 7.4596015755 7.427706154 7.397660112 7.3711350285 7.3464972974 7.3253557836 
7.3061414969 7.2903730851 7.2765703648 7.2661410633 7.2577117339 7.2525644552 7.2494449535 7.24950017 7.2516026405 
7.2567592412 7.263972802 7.2741091238 7.2863012825 7.3012762902 7.3182944855 7.3379490764 7.3596223184 7.3837807273 
7.4099213089 7.4383925901 7.4687978416 7.5013774075 7.5358314679 7.5723026617 7.610578241 7.6507139261 7.6925740371 
7.7361381836 7.7813378241 7.8280870761 7.8763748452 7.9260600533 7.9771796901 8.0295473956 8.0832392299 8.1380330888 
8.1940353986 8.2509975346 8.3090478056 8.3679200851 8.427756172 8.4882813932 8.5496425828 8.6115655749 8.6741935547 
8.7372621835 8.8009019188 8.8648679983 8.9292685227 8.9938886322 9.0588037579 9.1238399657 9.189028919 9.2542494162 
9.3194774053 9.3846570514 9.4496957746 9.5146165589 9.579244659 9.6436960832 9.7076995565 9.7714789408 9.8346515074 
9.8975642267 9.9597076693 10.021567323 10.082491802 10.143120321 10.20264467 10.261872368 10.31982438 10.377489952 
10.433706655 10.489657124 10.543985063 10.598075682 10.650371197 10.702465318 10.752594827 10.802563723 10.850404016 
10.898126686 10.943565224 10.988928162 11.03186338 11.074760335 11.11510195 11.155433667 11.193102985 11.230776954 
11.265707157 11.300637361 
pressure 1 101 double
-230.49831577 -234.16467793 -237.83104009 -241.00641275 -244.15920708 -246.83823995 -249.47221996 -251.65165301 -253.76437095 
-255.4431088 -257.03484023 -258.21398967 -259.2876458 -259.9705204 -260.53154656 -260.72364218 -260.77990191 -260.48884628 
-260.05049146 -259.28597119 -258.36529936 -257.13896731 -255.75026787 -254.07563384 -252.23502535 -250.12733286 -247.85259354 
-245.32868537 -242.63907949 -239.71725461 -236.63335685 -233.33322119 -229.8767415 -226.21905494 -222.41266559 -218.41918753 
-214.28635434 -209.97968979 -205.54450883 -200.94795716 -196.23499812 -191.37240622 -186.40656319 -181.30218457 -176.10853492 
-170.78689617 -165.39056777 -159.87634345 -154.30239036 -148.6202873 -142.89357391 -137.06822546 -131.21331893 -125.2691895 
-119.31026039 -113.27156043 -107.23229112 -101.12290244 -95.026403232 -88.869814132 -82.738546807 -76.557796643 -70.413505194 
-64.231137502 -58.094786048 -51.932809307 -45.824527123 -39.704382068 -33.643415797 -27.585948067 -21.590621276 -15.616058051 
-9.7037384032 -3.831667605 1.9812579722 7.7319074492 13.430049127 19.041027714 24.610000079 30.063759979 35.490179662 
40.769901061 46.04137395 51.130996637 56.236093883 61.120355872 66.048577925 70.713062578 75.4547905 79.885983499 
84.432416949 88.61777427 92.960855677 96.888883477 101.02120811 104.68155514 108.59626713 111.9798298 115.67050451 
118.76954434 122.23005806 
crossSection 1 101 double
0.97448974307 0.97409188944 0.97369427941 0.97335011295 0.97300857418 0.97271849872 0.97243342786 0.97219764653 0.97196916459 
0.97178767328 0.97161563532 0.97148821963 0.97137222505 0.97129846014 0.97123786373 0.9712171168 0.97121104069 0.97124247559 
0.97128982213 0.97137240595 0.97147187133 0.97160438263 0.97175447127 0.97193550957 0.97213454911 0.97236254565 0.97260870224 
0.97288193158 0.9731732255 0.97348981785 0.97382413911 0.97418209323 0.97455721708 0.97495441347 0.97536801571 0.97580222999 
0.97625190185 0.97672081819 0.9772040808 0.97770530512 0.97821962344 0.97875069644 0.9792934926 0.97985190226 0.98042056838 
0.98100376201 0.98159567234 0.98220106795 0.98281359044 0.9834385875 0.98406909483 0.98471108413 0.98535696414 0.98601333699 
0.98667200258 0.98734015912 0.98800905768 0.98868641439 0.98936303664 0.99004703312 0.99072892154 0.99141702646 0.99210178322 
0.99279149971 0.99347679401 0.99416566435 0.99484923937 0.99553484928 0.99621452841 0.99689451091 0.99756820351 0.99824024251 
0.9989059489 0.99956778277 1.0002235985 1.0008730235 1.0015171429 1.0021520171 1.0027827354 1.0034009825 1.004016698 
1.0046163122 1.0052155257 1.005794577 1.0063758916 1.0069325316 1.0074946499 1.0080271196 1.0085688398 1.0090754777 
1.0095956883 1.0100749398 1.0105726125 1.0110230412 1.0114972218 1.0119175221 1.0123673199 1.0127563307 1.013180906 
1.013537626 1.0139361766 
