# vtk DataFile Version 5.1
vtk output
ASCII
DATASET STRUCTURED_POINTS
DIMENSIONS 102 2 2
SPACING 0.1 0 0
ORIGIN 0 0 0
CELL_DATA 101
FIELD FieldData 3
velocity 1 101 double
10.927050983 10.839704455 10.751559005 10.663980629 10.575955227 10.488472508 10.400859723 10.313800028 10.226896929 
10.140586348 10.054692644 9.9694546726 9.8848707368 9.8010248019 9.7180495851 9.6359094269 9.5548383151 9.474710249 
9.3958328763 9.3180139728 9.2416120281 9.166388245 9.0927333039 9.0203776115 8.9497290266 8.8804995656 8.8131024502 
8.7472407633 8.6833241005 8.6210534761 8.5608283858 8.5023523488 8.4460105395 8.3915115231 8.3392239539 8.2888621765 
8.2407779492 8.1946905199 8.1509360154 8.1092362822 8.0699145502 8.0326917004 7.9978821061 7.9652010213 7.9349591459 
7.9068605091 7.8812182959 7.8577189406 7.8366850749 7.8177785641 7.8013390677 7.7869964834 7.7751155045 7.7652864272 
7.7579072007 7.7525208553 7.7495668087 7.7485333507 7.7499093282 7.7531212445 7.7587148234 7.7660484217 7.7757312938 
7.787048254 7.8006776483 7.8158266129 7.8332467343 7.8520649138 7.8731083789 7.8954231517 7.9199124022 7.9455428903 
7.9732915682 8.0020501713 8.0328644435 8.0645583185 8.0982381408 8.132670612 8.169010926 8.205982818 8.2447746752 
8.2840855578 8.3251171712 8.3665665107 8.4096242324 8.4530124428 8.4978816713 8.543011062 8.5894770823 8.6361526987 
8.6840014618 8.7320318171 8.7810506636 8.8302483604 8.880226697 8.9304089394 8.9811388747 9.0321278706 9.0834048179 
9.1350280734 9.1866513289 
pressure 1 101 double
85.028676216 76.86410745 68.699538684 60.529969927 52.341403108 44.190903556 36.011349482 27.905248953 19.767249415 
11.73186783 3.6674806804 -4.2701427582 -12.229391098 -20.041768136 -27.864959871 -35.524422033 -43.181351134 -50.660316121 
-58.121613031 -65.392847303 -72.630120417 -79.666996164 -86.652985073 -93.429729393 -100.13846477 -106.63039857 -113.03736366 
-119.22112758 -125.30341635 -131.15718095 -136.89364838 -142.39730578 -147.76870599 -152.9040405 -157.89314912 -162.64398449 
-167.23570204 -171.5880235 -175.76945737 -179.71150704 -183.47203025 -186.99437503 -190.32566065 -193.42123232 -196.31726328 
-198.981371 -201.43842543 -203.66874147 -205.68535472 -207.48187471 -209.05877932 -210.42375877 -211.56380461 -212.50167376 
-213.20973061 -213.72699002 -214.00983528 -214.11493475 -213.98112928 -213.68433266 -213.14408773 -212.4573264 -211.52236472 
-210.45908234 -209.14249623 -207.71748716 -206.03359669 -204.26284044 -202.22705414 -200.12754792 -197.75622855 -195.34581971 
-192.65615703 -189.95337696 -186.96326955 -183.98717038 -180.71511776 -177.48511284 -173.95011909 -170.48582818 -166.70731787 
-163.02841771 -159.02616441 -155.15224513 -150.94631263 -146.89674054 -142.50743643 -138.30122354 -133.7490645 -129.40474518 
-124.71043297 -120.24594817 -115.43035504 -110.86294469 -105.94710656 -101.29321062 -96.298326209 -91.573495367 -86.520929052 
-81.739745833 -76.651032023 
crossSection 1 101 double
1.0096639432 1.0087299319 1.007797216 1.0068652231 1.0059323597 1.0050051199 1.004075863 1.0031562219 1.0022342321 
1.001325115 1.0004139594 0.99951834005 0.99862148785 0.99774235855 0.99686317508 0.99600351717 0.99514525453 0.99430801036 
0.99347379649 0.99266184233 0.99185466852 0.9910707887 0.99029349631 0.98954035886 0.98879562557 0.98807575945 0.98736608567 
0.98668185982 0.98600955565 0.98536316003 0.98473033329 0.98412376217 0.98353230767 0.98296734521 0.98241893582 0.98189714421 
0.98139322372 0.98091593392 0.98045771207 0.98002601708 0.97961446678 0.97922921771 0.97886507441 0.97852687907 0.97821064248 
0.97791986646 0.97765180435 0.97740857457 0.97718872855 0.97699293899 0.9768211322 0.97667245165 0.97654829803 0.97644617967 
0.97636909466 0.97631278723 0.97628199953 0.97627055983 0.97628512411 0.97631743061 0.97637624071 0.976451008 0.97655281052 
0.97666860447 0.97681201235 0.97696726568 0.97715077161 0.97734379971 0.97756578913 0.97779480602 0.97805356944 0.97831670368 
0.97861044826 0.97890575871 0.97923261881 0.97955811021 0.97991615692 0.9802697951 0.98065704454 0.98103677133 0.98145119177 
0.9818549395 0.98229445723 0.98272016277 0.98318266669 0.98362828509 0.98411163013 0.98457514774 0.98507715711 0.98555660418 
0.98607507068 0.98656853339 0.98710121973 0.98760685159 0.98815149011 0.98866752264 0.98922181446 0.98974656706 0.99030818098 
0.99084006984 0.99140664121 
