# vtk DataFile Version 5.1
vtk output
ASCII
DATASET STRUCTURED_POINTS
DIMENSIONS 102 2 2
SPACING 0.1 0 0
ORIGIN 0 0 0
CELL_DATA 101
FIELD FieldData 3
velocity 1 101 double
10.927050983 11.006098213 11.083074528 11.158577242 11.231866599 11.303661882 11.373144613 11.441089289 11.506656918 
11.570626268 11.63218121 11.692067685 11.74952306 11.80523504 11.858514564 11.909975216 11.95901313 12.006159386 
12.050900397 12.093682058 12.134081285 12.172460272 12.208483194 12.242432923 12.27405532 12.303560214 12.330768113 
12.355823214 12.378612841 12.399223536 12.417601272 12.433783103 12.447765461 12.459544009 12.469157619 12.476568451 
12.481850065 12.484938735 12.48593525 12.484757336 12.481525823 12.476146997 12.468754749 12.459250858 12.447775441 
12.434232603 12.418761909 12.401276602 12.381908893 12.360588039 12.337431982 12.312393002 12.285567683 12.256938529 
12.226573438 12.194492576 12.160727559 12.125343907 12.088329073 12.049801878 12.009697455 11.968196101 11.925172232 
11.880875975 11.83511245 11.78821006 11.739895981 11.690585298 11.639918663 11.588406055 11.535593271 11.482092983 
11.427348296 11.372081699 11.315626541 11.25882127 11.200883539 11.142772523 11.083585779 11.024406163 10.964208764 
10.904200732 10.843234909 10.782640407 10.721151285 10.660212661 10.59844725 10.537405815 10.475611967 10.414706491 
10.353131852 10.292597013 10.231487977 10.171552776 10.111153458 10.052039625 9.9925908631 9.9345112677 9.8762496798 
9.8194067718 9.7625638637 
pressure 1 101 double
85.527646791 92.845438461 100.16323013 107.13928733 114.09974076 120.72415767 127.31420742 133.57769406 139.78646616 
145.68040944 151.49897449 157.01550125 162.43664574 167.56868077 172.58670239 177.32801711 181.93854676 186.28379688 
190.48364816 194.42839998 198.21544502 201.7561916 205.12926136 208.26343018 211.22223668 213.94819095 216.4932685 
218.81030419 220.94296681 222.85130752 224.57361994 226.07441115 227.38917088 228.48447509 229.39520352 230.08799719 
230.59893779 230.89311086 231.00923286 230.90959121 230.63659748 230.14886825 229.49320615 228.62404586 227.59292009 
226.349925 224.95131161 223.34302981 221.58569035 219.6216348 217.51513001 215.20579167 212.76049387 210.11735388 
207.34445743 204.37999731 201.29152646 198.01923502 194.62804864 191.0624245 187.38221693 183.53876546 179.58406293 
175.4792864 171.26543856 166.91681817 162.45998426 157.88595306 153.2030824 148.42298773 143.53179433 138.5658489 
133.48478006 128.35400067 123.10219965 117.82833273 112.42559562 107.03102891 101.49775622 96.005416113 90.362559577 
84.795793676 79.064799114 73.447244004 67.64999122 62.005425413 56.164166278 50.516348697 44.653644758 39.026139277 
33.164800358 27.580787192 21.743812567 16.225887499 10.436411302 5.0063740147 -0.71238348024 -6.033750444 -11.658524089 
-16.851683946 -22.359196147 
crossSection 1 101 double
1.0097210665 1.0105593821 1.0113987422 1.0121998789 1.0130001727 1.0137627117 1.0145221494 1.0152447452 1.015961791 
1.0166431805 1.0173165283 1.017955541 1.0185840917 1.0191796584 1.0197624992 1.0203136601 1.0208500463 1.0213559574 
1.0218452973 1.0223052351 1.0227470772 1.0231604424 1.0235544653 1.0239207851 1.0242667892 1.0245857187 1.0248836205 
1.025154943 1.0254047709 1.0256283983 1.0258302889 1.0260062613 1.0261604581 1.0262889434 1.0263957954 1.0264770891 
1.02653705 1.0265715748 1.0265852036 1.026573509 1.0265414697 1.0264842323 1.0264072946 1.0263053176 1.0261843572 
1.0260385711 1.0258745702 1.0256860322 1.0254800798 1.0252499745 1.0250032662 1.0247329049 1.0244467429 1.0241375632 
1.0238133557 1.0234669208 1.0231061807 1.022724178 1.0223285213 1.0219127602 1.0214839043 1.0210363137 1.0205760743 
1.0200986986 1.0196089866 1.0191039816 1.018586799 1.0180564257 1.0175138612 1.0169604794 1.0163947031 1.015820763 
1.0152340204 1.0146420532 1.0140366591 1.0134292664 1.0128075974 1.0121874391 1.0115519268 1.0109217074 1.0102748302 
1.0096372839 1.0089815592 1.0083394338 1.0076774101 1.0070334489 1.0063676977 1.0057246213 1.0050577292 1.004418215 
1.0037527766 1.0031194378 1.0024580488 1.0018334125 1.0011786638 1.0005651482 0.99991962098 0.99931951167 0.99868577324 
0.99810119946 0.99748180089 
