# vtk DataFile Version 4.2
vtk output
ASCII
DATASET STRUCTURED_POINTS
DIMENSIONS 102 2 2
SPACING 0.1 0 0
ORIGIN 0 0 0
CELL_DATA 101
FIELD FieldData 3
velocity 1 101 double
8.2366442431 8.3189448781 8.4027349175 8.4863036053 8.5709632337 8.6554244216 8.7406182496 8.8256103111 8.911016247 
8.9961927754 9.0815021549 9.1665328854 9.2514505266 9.3360219186 9.420266126 9.5040816471 9.5873841795 9.6701643359 
9.7522703456 9.8337525062 9.9144204513 9.9943585121 10.073360041 10.151523972 10.228643781 10.304819093 10.379854753 
10.45384192 10.526603675 10.598217531 10.668528072 10.737597219 10.805291434 10.871657655 10.936582365 11.000100074 
11.062113756 11.122649482 11.181621993 11.239053901 11.294866202 11.349083671 11.401627565 11.452530797 11.501708681 
11.549208365 11.594933011 11.638950032 11.681144389 11.721609572 11.760206608 11.797060515 11.832003087 11.865195845 
11.89643661 11.925927778 11.953429142 11.979187613 12.002921721 12.024925656 12.04487441 12.063111196 12.079266325 
12.093732563 12.106095711 12.116797216 12.125380074 12.132331903 12.137156356 12.140382832 12.141481138 12.141015898 
12.138430871 12.134316903 12.128102118 12.120391797 12.110611785 12.099366904 12.086097348 12.071389132 12.054717036 
12.036626136 12.016649979 11.995266443 11.972096283 11.9475195 11.921277032 11.893615639 11.864434184 11.833805947 
11.801830364 11.768362019 11.733748518 11.697575579 11.660491424 11.621757961 11.582381039 11.541239431 11.499757679 
11.456368344 11.412979009 
pressure 1 101 double
-169.19113464 -161.21042167 -153.22970869 -145.16717783 -137.08698324 -128.97355365 -120.83159951 -112.69713699 -104.52921926 
-96.402509373 -88.24241658 -80.151138218 -72.030616113 -64.001314659 -55.950070132 -48.008130524 -40.053867567 -32.223488403 
-24.391968821 -16.696138975 -9.0112609361 -1.4717401659 6.0443716829 13.407066842 20.733965078 27.900569239 35.019385599 
41.971885832 48.865234822 55.586865364 62.238752073 68.713982833 75.109716719 81.324236298 87.450352037 93.391046185 
99.235232148 104.89015872 110.44119329 115.79955477 121.04725041 126.09936495 131.03451987 135.7717919 140.3861489 
144.80103986 149.0872521 153.17325218 157.12485543 160.87645649 164.48784767 167.90051772 171.16693936 174.23709867 
177.15462906 179.8796279 182.44517679 184.82327444 187.03458409 189.06492899 190.92058038 192.60319097 194.10261503 
195.4383607 196.58185448 197.57243618 198.36118364 199.00911359 199.44521089 199.75379071 199.84027564 199.8135723 
199.55445759 199.1972767 198.59758669 197.91544251 196.98125264 195.98033438 194.71881292 193.40594697 191.82539807 
190.20800603 188.31791318 186.40396551 184.21503422 182.01299984 179.5371982 177.05599037 174.30658578 171.55550505 
168.54709541 165.53577068 162.28430771 159.02263688 155.54543922 152.0435314 148.35928459 144.62740609 140.75614645 
136.80467346 132.76775229 
crossSection 1 101 double
0.9811787415 0.98205455083 0.98293153332 0.98381869999 0.98470901589 0.98560421036 0.98650377982 0.98740375198 0.98830866526 
0.9892102483 0.99011677675 0.99101689138 0.99192149389 0.99281715304 0.99371647854 0.99460479238 0.99549567905 0.99637386026 
0.99725333217 0.99811870109 0.99898396299 0.99983395259 1.0006823833 1.0015145437 1.0023436891 1.0031556913 1.0039632563 
1.0047528958 1.0055367373 1.0063019363 1.0070600558 1.0077988649 1.008529402 1.0092400015 1.0099412278 1.010621928 
1.0112922418 1.011941483 1.0125794047 1.0131957568 1.0137999251 1.0143820868 1.0149512554 1.015498053 1.0160310881 
1.0165414745 1.017037353 1.0175104064 1.0179682143 1.0184031371 1.0188220687 1.0192181857 1.0195975437 1.0199543012 
1.0202934965 1.0206104607 1.0209090132 1.021185869 1.0214434085 1.0216799579 1.0218962261 1.0220923865 1.0222672385 
1.0224230412 1.0225564478 1.0226720359 1.0227640866 1.0228397125 1.0228906181 1.0229266409 1.0229367373 1.0229336199 
1.0229033711 1.0228616763 1.0227916784 1.0227120649 1.0226030501 1.0224862678 1.022339108 1.0221859925 1.0220017036 
1.0218131705 1.0215929158 1.0213699538 1.0211150475 1.0208587116 1.0205706221 1.0202820259 1.0199623779 1.0196426853 
1.0192932616 1.0189436791 1.0185664211 1.0181881891 1.017785196 1.0173795809 1.0169531077 1.0165213942 1.0160738471 
1.0156173315 1.0151512617 
