# vtk DataFile Version 5.1
vtk output
ASCII
DATASET STRUCTURED_POINTS
DIMENSIONS 102 2 2
SPACING 0.1 0 0
ORIGIN 0 0 0
CELL_DATA 101
FIELD FieldData 3
velocity 1 101 double
7.5729490169 7.6384163468 7.7065326247 7.7750859698 7.8459108424 7.9171985465 7.9903982355 8.0640671151 8.1393096076 
8.2150073946 8.2919637212 8.3693412987 8.4476866844 8.5264000863 8.6058149984 8.6855271581 8.7656982681 8.8460805095 
8.9267015811 9.0074348583 9.0882075694 9.1689834699 9.2496181695 9.3301397022 9.4103561043 9.4903382991 9.5698661119 
9.6490364594 9.7276159503 9.8057147117 9.8830972075 9.9598776249 10.035825952 10.111054384 10.18534325 10.258799262 
10.331215591 10.402692012 10.473035235 10.542338206 10.610420518 10.677369548 10.743016141 10.807444162 10.870493443 
10.932246896 10.992550682 11.051489613 11.108913338 11.164911514 11.219334411 11.272279453 11.323594746 11.373388265 
11.421503346 11.46806108 11.512897678 11.556149622 11.597643955 11.637534458 11.675637362 11.712125205 11.746802228 
11.779860644 11.811092101 11.840708745 11.86848973 11.894666575 11.919006905 11.941760067 11.962684174 11.982043641 
11.999590386 12.015599659 12.029822073 12.042537708 12.053502656 12.062993699 12.070781463 12.077128787 12.081832562 
12.085128103 12.086853421 12.087199319 12.08606338 12.083571034 12.079701966 12.074491018 12.068027055 12.060224307 
12.051312889 12.041051188 12.029847987 12.017265082 12.003932944 11.989170358 11.973878168 11.9570801 11.940001558 
11.921313854 11.902626151 
pressure 1 101 double
-230.1023624 -223.7499469 -217.39753141 -210.78455707 -204.14922859 -197.30559057 -190.42309668 -183.378768 -176.28464128 
-169.06955635 -161.79887377 -154.44281682 -147.02999019 -139.56248687 -132.04108573 -124.49129678 -116.89390367 -109.29052056 
-101.64861727 -94.019760262 -86.363642401 -78.736762218 -71.09547883 -63.497263192 -55.898577493 -48.354863908 -40.825231186 
-33.360927184 -25.925485838 -18.564497507 -11.247069546 -4.0122387821 3.1646635136 10.251613056 17.266777126 24.185285796 
31.018787778 37.749498123 44.382692597 50.907480997 57.322992782 63.624995596 69.806714466 75.870349785 81.803428536 
87.61441455 93.285270539 98.83064134 104.22696131 109.49508071 114.60582848 119.5864022 124.40182866 129.08591485 
133.59756954 137.97758745 142.17833091 146.24806713 150.13208326 153.88669485 157.44950238 160.88551592 164.12397829 
167.2392838 170.15161659 172.94545522 175.53123074 178.00417498 180.26432332 182.41824864 184.35505495 186.19310168 
187.81019947 189.33672397 190.63908439 191.85959865 192.85351578 193.77461482 194.46768728 195.09696383 195.49807304 
195.84401943 195.96330473 196.03520221 195.88403331 195.69182933 195.28277631 194.83695071 194.18375168 193.49517343 
192.61269955 191.69247609 190.59669345 189.45601549 188.1639427 186.81392777 185.34358758 183.79512695 182.16548935 
180.42910323 178.66001673 
crossSection 1 101 double
0.97453272435 0.97522267675 0.97591336211 0.97663315732 0.97735618636 0.97810275563 0.97885442672 0.97962467023 0.98040127793 
0.9811920748 0.98198993363 0.98279815192 0.98361361736 0.98443612426 0.98526561105 0.98609928332 0.98693928078 0.98778101557 
0.98862810024 0.98947482609 0.99032567172 0.99117435973 0.99202574499 0.99287341985 0.99372223421 0.99456598505 0.99540923303 
0.99624622377 0.99708102807 0.99790850726 0.99873211104 0.99954742101 1.0003571897 1.001157775 1.0019511979 1.0027346131 
1.0035093049 1.0042732215 1.005026924 1.0057691369 1.0064997212 1.0072181547 1.0079236233 1.0086163363 1.009294826 
1.0099600173 1.0106098019 1.0112458147 1.011865309 1.0124706353 1.0130583983 1.0136316831 1.0141864215 1.0147264666 
1.0152470394 1.0157528067 1.0162382281 1.0167088427 1.0171582861 1.0175930386 1.0180058395 1.0184041877 1.0187798471 
1.0191414166 1.0194796027 1.0198041873 1.0201047375 1.0203922975 1.0206552193 1.0209058789 1.0211313504 1.021345394 
1.0215337634 1.0217116301 1.0218634145 1.0220056908 1.0221215745 1.0222289856 1.0223098173 1.022383217 1.022430007 
1.0224703647 1.022484281 1.022492669 1.0224750329 1.0224526101 1.0224048919 1.0223528877 1.0222767013 1.0221963976 
1.0220934952 1.0219862075 1.0218584735 1.0217255316 1.0215749765 1.0214177055 1.0212464583 1.0210661592 1.0208764596 
1.020674392 1.0204685807 
