# vtk DataFile Version 5.1
vtk output
ASCII
DATASET STRUCTURED_POINTS
DIMENSIONS 102 2 2
SPACING 0.1 0 0
ORIGIN 0 0 0
CELL_DATA 101
FIELD FieldData 3
velocity 1 101 double
12.853169549 12.866057192 12.875406559 12.883083958 12.887374518 12.88992026 12.889238668 12.886745776 12.881187067 
12.873761555 12.863429931 12.851189676 12.836199051 12.819272937 12.799747272 12.778274558 12.754348042 12.728477885 
12.700294979 12.670186078 12.637901468 12.603721782 12.567500248 12.52942676 12.489442983 12.447661486 12.404099795 
12.35880467 12.311858743 12.263252717 12.21312523 12.161419108 12.10832133 12.053733673 11.997885015 11.940641771 
11.88226927 11.822603344 11.7619411 11.700091857 11.637380392 11.573593097 11.509078665 11.443603848 11.377537664 
11.310630417 11.243267832 11.175187032 11.106786637 11.037794107 10.968616769 10.898976367 10.829284217 10.759260873 
10.689316229 10.619174919 10.549239169 10.479243851 10.409576298 10.339988801 10.270845478 10.20192437 10.133556838 
10.065556268 9.9982104128 9.9313789516 9.8652937884 9.7998732653 9.7352797655 9.6715041256 9.6086240824 9.5467182678 
9.4857632133 9.425942082 9.3671122703 9.3095795631 9.2530630345 9.1980103999 9.1439821372 9.0915882228 9.0402094137 
8.9906390315 8.9420564471 8.8954598206 8.849805318 8.8063174139 8.7637075729 8.7234475227 8.6839834192 8.6470540322 
8.6108211541 8.577308521 8.5443768282 8.5143500163 8.4847741425 8.4582849787 8.4321045742 8.4091875137 8.3864277241 
8.3670997989 8.3477718737 
pressure 1 101 double
266.50515611 267.53440832 268.56366053 269.13444379 269.66267528 269.78032526 269.8184391 269.48908059 269.04907325 
268.27978703 267.37456902 266.17349846 264.81677414 263.19318513 261.3993774 259.36368375 257.14789125 254.71165525 
252.08963194 249.26554785 246.25369683 243.055563 239.67093833 236.11362188 232.37393355 228.47333053 224.39694908 
220.16994156 215.77589962 211.24031073 206.5482996 201.72284679 196.75320673 191.65745311 186.43115631 181.08545984 
175.62408544 170.04954545 164.3752461 158.59364671 152.72910637 146.76285641 140.73123928 134.60330807 128.42819873 
122.16204763 115.86738241 109.48689171 103.09688166 96.626272886 90.165318653 83.629072235 77.121671438 70.544439988 
64.015087697 57.421605175 50.89468836 44.309675598 37.809362449 31.257429609 24.807554807 18.313101458 11.937048603 
5.5241621668 -0.75525532947 -7.0629018952 -13.223560064 -19.40281044 -25.423392702 -31.451708289 -37.311820594 -43.167379553 
-48.847661158 -54.509454506 -59.991682857 -65.439606736 -70.706794927 -75.921738272 -80.958223618 -85.922150522 -90.71367283 
-95.409699057 -99.943467281 -104.35593055 -108.62067659 -112.73520037 -116.72121893 -120.52476978 -124.2239433 -127.7048818 
-131.11068958 -134.25881543 -137.36632616 -140.17291793 -142.97876505 -145.43661547 -147.93895481 -150.04240269 -152.24085177 
-153.98581185 -155.88137072 
crossSection 1 101 double
1.0307639829 1.0308855327 1.0310071039 1.0310745319 1.031136939 1.0311508394 1.0311553426 1.0311164293 1.0310644465 
1.0309735718 1.030866655 1.0307248203 1.0305646396 1.0303730008 1.0301613326 1.0299212009 1.0296599201 1.0293727599 
1.029063835 1.0287312591 1.0283767485 1.028000512 1.0276025612 1.0271845549 1.0267453937 1.026287636 1.0258095767 
1.0253142054 1.0247996392 1.0242689033 1.0237202973 1.0231565484 1.022576441 1.0219821245 1.0213731208 1.0207507668 
1.0201155327 1.0194677472 1.0188090027 1.0181384579 1.0174589698 1.016768395 1.0160709686 1.0153631402 1.0146506102 
1.0139283415 1.0132035624 1.0124696939 1.0117355294 1.0109929182 1.0102522304 1.009503739 1.0087593769 1.0080078633 
1.0072626508 1.0065109572 1.0057676809 1.0050186228 1.0042800198 1.0035363751 1.0028051206 1.0020696192 1.0013483136 
1.0006236265 0.99991478401 0.99920351297 0.99850954919 0.99781421707 0.99713743773 0.99646047872 0.99580306894 0.99514681959 
0.99451083376 0.99387752445 0.99326487698 0.99265662408 0.99206908113 0.99148787973 0.99092705203 0.9903747694 0.9898421062 
0.98932047595 0.98881726028 0.98832787717 0.98785522245 0.9873995379 0.98695838595 0.98653770419 0.98612882475 0.98574429951 
0.98536829129 0.985020923 0.98467821634 0.98436884972 0.9840597109 0.98378903282 0.98351356999 0.98328210746 0.98304027836 
0.98284839649 0.98264001792 
