# vtk DataFile Version 4.2
vtk output
ASCII
DATASET STRUCTURED_POINTS
DIMENSIONS 102 2 2
SPACING 0.1 0 0
ORIGIN 0 0 0
CELL_DATA 101
FIELD FieldData 3
velocity 1 101 double
11.763355757 11.825117882 11.884071944 11.941354516 11.995791836 12.048518279 12.09839464 12.146505133 12.191784505 
12.235234586 12.275889344 12.314648653 12.350659827 12.384711001 12.41606851 12.445406257 12.472109125 12.496739471 
12.518796005 12.538735714 12.55616366 12.571439791 12.584266465 12.594916074 12.60317848 12.609248426 12.612993358 
12.614540209 12.613824356 12.610914373 12.605804413 12.598513589 12.58908629 12.577500437 12.563842754 12.548057615 
12.530266779 12.510388162 12.488571767 12.464715671 12.438991742 12.411284483 12.381781524 12.35035983 12.317216845 
12.282227922 12.245594388 12.207195943 12.167231749 12.12559195 12.082467268 12.037764642 11.99165974 11.944082999 
11.895187972 11.844935746 11.793450178 11.740730659 11.686863184 11.631893668 11.575861449 11.518867773 11.460895876 
11.402111744 11.342432419 11.282098616 11.220950475 11.159313965 11.096941072 11.034253986 10.97090485 10.907423359 
10.843349852 10.779332943 10.714789138 10.65049729 10.585738247 10.521432018 10.456712517 10.392651066 10.328224318 
10.264663859 10.2007802 10.137972412 10.074878014 10.013068427 9.9510040345 9.8904303996 9.82963012 9.7705207881 
9.7112109591 9.6537832842 9.5961814329 9.5406402192 9.4849541367 9.4314901468 9.3779170947 9.3267056365 9.275431701 
9.2266313077 9.1778309144 
pressure 1 101 double
163.6210668 169.23636838 174.85166996 180.054573 185.23150275 190.01834931 194.75272117 199.12021666 203.40953512 
207.35487869 211.19809538 214.71909104 218.11639995 221.21154671 224.16421761 226.83277905 229.34302665 231.58508206 
233.65596702 235.47244733 237.10780485 238.50051648 239.70490811 240.67654797 241.45523236 242.00939703 242.36831571 
242.50950707 242.45528195 242.18891134 241.72885092 241.06124315 240.20335491 239.14175304 237.89475997 236.44733139 
234.82069085 232.99653477 231.00045802 228.80961426 226.45508551 223.9085439 221.20733772 218.31704763 215.28174365 
212.06062276 208.70461661 205.16655805 201.50406774 197.66394454 193.71001147 189.58367713 185.35416095 180.95844518 
176.47001175 171.82271025 167.09281207 162.21266928 157.25951791 152.16620162 147.00873167 141.72279861 136.38062302 
130.92347463 125.41683105 119.81065874 114.16034695 108.42806632 102.65537715 96.820550613 90.947186751 85.033934437 
79.081923867 73.114822647 67.106425681 61.110396526 55.068007612 49.068191566 43.014237337 37.035860607 30.992695853 
25.060924693 19.050728108 13.19051436 7.2351861332 1.4711043528 -4.4078321514 -10.051754988 -15.833245059 -21.333706227 
-26.997246681 -32.331849693 -37.857560306 -43.005001176 -48.373682205 -53.313939009 -58.507112416 -63.2216373 -68.221569407 
-72.693482281 -77.483185791 
crossSection 1 101 double
1.0187214961 1.0193733041 1.0200257379 1.0206308149 1.0212334058 1.0217910664 1.0223430631 1.0228526812 1.0233535482 
1.0238145739 1.0242639654 1.024675939 1.0250736763 1.0254362398 1.0257822931 1.0260951995 1.0263896732 1.0266527929 
1.0268959145 1.0271092401 1.0273013517 1.0274650013 1.027606554 1.0277207727 1.0278123226 1.0278774833 1.0279196895 
1.0279362933 1.0279299165 1.0278985925 1.0278444949 1.0277659998 1.0276651453 1.0275403625 1.0273938175 1.0272237569 
1.0270326908 1.0268184878 1.0265841737 1.0263270887 1.0260509037 1.0257523212 1.0254357466 1.0250971742 1.0247417951 
1.0243648623 1.0239723665 1.0235588233 1.0231309999 1.0226827148 1.0222214516 1.0217404088 1.0212476896 1.0207359865 
1.0202138869 1.0196737296 1.0191244125 1.0185581114 1.0179838209 1.0173937853 1.0167968404 1.0161855718 1.0155683591 
1.0149384433 1.0143034082 1.0136575074 1.0130071452 1.0123479876 1.0116848334 1.0110152029 1.0103418209 1.0096645451 
1.0089835176 1.0083014549 1.0076153705 1.0069313961 1.0062428378 1.0055598294 1.0048713626 1.0041921843 1.0035063452 
1.0028338313 1.0021531152 1.0014900533 1.0008169035 1.000166017 0.99950281487 0.99886674502 0.99821580069 0.99759708821 
0.99696063284 0.99636169956 0.99574187889 0.99516500906 0.99456387892 0.99401120043 0.99343072407 0.99290418974 0.99234623741 
0.99184760612 0.99131395697 
