# vtk DataFile Version 5.1
vtk output
ASCII
DATASET STRUCTURED_POINTS
DIMENSIONS 102 2 2
SPACING 0.1 0 0
ORIGIN 0 0 0
CELL_DATA 101
FIELD FieldData 3
velocity 1 101 double
9.0729490169 8.9928338724 8.9142031693 8.8371289241 8.7618191012 8.6880805503 8.6163433427 8.5462169404 8.4782907089 
8.4120328836 8.348140043 8.2859855638 8.2263302554 8.1684907107 8.1132567491 8.0599191892 8.0092683045 7.9605940949 
7.9146644915 7.8707884116 7.8296936556 7.7907232707 7.7545515135 7.720566836 7.6893803732 7.6604338206 7.6342689797 
7.6103856273 7.589252971 7.5704310871 7.5543159121 7.5405277596 7.5293908662 7.5205837449 7.5143624486 7.5104599497 
7.5090693027 7.509972742 7.5133069301 7.5188969269 7.5268308071 7.5369689717 7.5493597145 7.5638904124 7.5805792145 
7.5993313728 7.6201452076 7.6429341333 7.6676875098 7.6943166937 7.7228133947 7.7530762765 7.7851110529 7.8187927288 
7.8541529279 7.8910317848 7.929498896 7.9693481595 8.0106992632 8.053288452 8.0972975612 8.1423938417 8.1888331296 
8.236202569 8.2848434776 8.3342521952 8.3848664243 8.4360816443 8.4884420216 8.54123303 8.5951142647 8.6492532767 
8.704432603 8.7596955461 8.815953262 8.8721204818 8.9292403914 8.9860972864 9.0438670557 9.1012046463 9.1594160818 
9.2170315204 9.2754807813 9.333177808 9.3916655629 9.449254912 9.5075864512 9.5648862102 9.6228715255 9.6797074508 
9.7371612938 9.7933670828 9.8501090138 9.9055265338 9.9613809715 10.015860445 10.070656729 10.124056874 10.177629346 
10.229817468 10.28200559 
pressure 1 101 double
-89.282366805 -96.771009744 -104.25965268 -111.4585125 -118.65237051 -125.53725983 -132.40699898 -138.95431969 -145.47273098 
-151.65984516 -157.80194266 -163.60750693 -169.35063481 -174.75489775 -180.07883744 -185.06389947 -189.95096925 -194.5010043 
-198.93614487 -203.03758326 -207.00842411 -210.65009624 -214.14699889 -217.32023999 -220.33631531 -223.03503183 -225.5661299 
-227.7868289 -229.83150091 -231.57328413 -233.13271694 -234.39724199 -235.47516665 -236.26657829 -236.86915471 -237.19398919 
-237.3296696 -237.1967359 -236.87611031 -236.29635188 -235.53197879 -234.5183196 -233.32454552 -231.89172433 -230.28449559 
-228.448892 -226.44556219 -224.225018 -221.84415425 -219.25779332 -216.51898425 -213.58703367 -210.51070168 -207.25431681 
-203.86153687 -200.30263212 -196.61495919 -192.77604637 -188.81535288 -184.71938817 -180.50771299 -176.17795337 -171.7373634 
-167.19723297 -162.54969798 -157.82266422 -152.98994568 -148.09940543 -143.10295971 -138.07213423 -132.93303054 -127.78486898 
-122.52372211 -117.28081242 -111.91773043 -106.60221658 -101.15676332 -95.790267712 -90.281440208 -84.884990032 -79.331210278 
-73.925166749 -68.344287692 -62.948276998 -57.357602146 -51.990447197 -46.406763206 -41.086415367 -35.526036797 -30.269507017 
-24.748332197 -19.571621207 -14.105197928 -9.0232254799 -3.6268249919 1.3466416061 6.6579440968 11.51036154 16.72160194 
21.441721628 26.537959976 
crossSection 1 101 double
0.99000117638 0.9891693399 0.9883385514 0.98754089766 0.98674476238 0.98598372154 0.98522523258 0.98450315616 0.98378505633 
0.98310418034 0.98242895723 0.98179136976 0.98116124978 0.98056886294 0.97998580515 0.97944033127 0.97890602184 0.97840895377 
0.97792480162 0.97747739707 0.9770445312 0.97664780109 0.97626706981 0.97592177037 0.97559374287 0.9753003714 0.9750253416 
0.97478413565 0.97456212838 0.97437306811 0.97420384758 0.97406666108 0.97394974146 0.97386391255 0.9737985705 0.9737633489 
0.97374863772 0.97376305108 0.97379781629 0.97386068381 0.97394357978 0.97405352706 0.97418303451 0.97433850926 0.97451295319 
0.97471224158 0.97492980949 0.97517105269 0.97542981274 0.97571102362 0.97600894253 0.97632802201 0.97666298253 0.97701773561 
0.97738755331 0.97777570453 0.9781781438 0.97859735204 0.97903014119 0.97947801363 0.97993885895 0.98041296431 0.98089956299 
0.98139744392 0.9819074958 0.98242668041 0.98295789851 0.98349591119 0.98404603091 0.9846004024 0.98516718943 0.98573546629 
0.98631672313 0.9868964767 0.9874900478 0.98807888275 0.98868265827 0.9892782208 0.98989013893 0.9904901249 0.99110817278 
0.99171033573 0.99233254895 0.99293470813 0.99355916884 0.99415921748 0.99478405121 0.99537996491 0.99600333605 0.99659318148 
0.99721328764 0.9977952315 0.99841029673 0.998982615 0.9995908822 1.0001519696 1.0007516921 1.0013000715 1.0018895042 
1.0024238366 1.0030012268 
