/*--------------------------------*- C++ -*----------------------------------*\
| =========                 |                                                 |
| \\      /  F ield         | OpenFOAM: The Open Source CFD Toolbox           |
|  \\    /   O peration     | Version:  2006                                  |
|   \\  /    A nd           | Website:  www.openfoam.com                      |
|    \\/     M anipulation  |                                                 |
\*---------------------------------------------------------------------------*/
FoamFile
{
    version     2.0;
    format      ascii;
    class       volScalarField;
    location    "0.7";
    object      p;
}
// * * * * * * * * * * * * * * * * * * * * * * * * * * * * * * * * * * * * * //

dimensions      [0 2 -2 0 0 0 0];


internalField   nonuniform List<scalar> 
2790
(
121.308
121.069
121.138
121.483
122.006
122.67
123.473
124.42
125.511
126.747
128.127
129.651
131.317
133.123
135.061
137.12
139.285
141.533
143.834
146.152
148.443
150.656
152.736
154.624
156.261
157.597
158.591
159.224
159.503
159.595
121.12
120.992
121.085
121.428
121.949
122.61
123.41
124.352
125.437
126.666
128.037
129.552
131.208
133.002
134.928
136.976
139.128
141.365
143.658
145.971
148.261
150.48
152.572
154.478
156.14
157.505
158.527
159.186
159.52
159.828
120.949
120.892
121.005
121.34
121.85
122.502
123.29
124.218
125.287
126.496
127.845
129.334
130.96
132.72
134.608
136.613
138.72
140.907
143.149
145.412
147.655
149.833
151.894
153.785
155.453
156.852
157.952
158.761
159.331
159.876
120.765
120.739
120.867
121.196
121.695
122.336
123.11
124.02
125.067
126.25
127.569
129.022
130.607
132.32
134.153
136.098
138.137
140.251
142.414
144.595
146.756
148.856
150.848
152.687
154.328
155.738
156.899
157.819
158.502
159.027
120.557
120.547
120.685
121.011
121.498
122.124
122.88
123.766
124.786
125.936
127.216
128.623
130.156
131.808
133.574
135.441
137.395
139.416
141.478
143.552
145.603
147.595
149.484
151.233
152.805
154.169
155.307
156.207
156.815
157.078
120.322
120.319
120.462
120.782
121.256
121.863
122.596
123.455
124.44
125.551
126.785
128.138
129.609
131.191
132.877
134.654
136.508
138.418
140.36
142.306
144.223
146.076
147.826
149.44
150.881
152.118
153.119
153.846
154.219
153.977
120.058
120.056
120.2
120.513
120.971
121.556
122.262
123.089
124.036
125.101
126.281
127.573
128.973
130.475
132.069
133.745
135.484
137.269
139.073
140.871
142.629
144.313
145.887
147.314
148.557
149.575
150.32
150.723
150.719
149.69
119.762
119.76
119.901
120.204
120.644
121.205
121.88
122.67
123.574
124.588
125.708
126.931
128.253
129.665
131.158
132.72
134.333
135.977
137.628
139.257
140.832
142.316
143.673
144.861
145.836
146.544
146.92
146.858
146.362
144.332
119.437
119.432
119.567
119.856
120.277
120.81
121.452
122.202
123.058
124.015
125.07
126.218
127.454
128.768
130.151
131.589
133.063
134.553
136.033
137.473
138.84
140.094
141.193
142.088
142.724
143.034
142.935
142.273
141.192
138.004
119.081
119.072
119.199
119.473
119.871
120.376
120.981
121.687
122.491
123.387
124.371
125.439
126.582
127.791
129.055
130.359
131.685
133.007
134.301
135.533
136.667
137.659
138.458
139.006
139.233
139.054
138.371
136.971
135.218
130.754
118.696
118.683
118.798
119.056
119.43
119.903
120.469
121.128
121.876
122.707
123.617
124.598
125.642
126.74
127.879
129.042
130.208
131.352
132.444
133.451
134.329
135.029
135.487
135.634
135.38
134.616
133.231
130.931
128.363
122.338
118.282
118.264
118.368
118.607
118.955
119.394
119.919
120.528
121.217
121.98
122.811
123.702
124.643
125.625
126.632
127.646
128.645
129.601
130.48
131.245
131.848
132.227
132.308
132.001
131.193
129.743
127.515
124.116
120.529
112.631
117.842
117.818
117.909
118.128
118.448
118.851
119.333
119.89
120.518
121.21
121.959
122.756
123.591
124.452
125.322
126.183
127.009
127.769
128.426
128.938
129.25
129.287
128.959
128.153
126.724
124.48
121.245
116.494
111.571
101.47
117.377
117.346
117.423
117.621
117.911
118.278
118.715
119.218
119.783
120.402
121.067
121.768
122.493
123.23
123.961
124.665
125.314
125.873
126.303
126.556
126.567
126.249
125.494
124.159
122.058
118.926
114.501
108.044
101.062
87.6002
116.888
116.851
116.913
117.088
117.348
117.677
118.067
118.515
119.015
119.56
120.139
120.742
121.356
121.968
122.558
123.104
123.575
123.932
124.134
124.128
123.836
123.163
121.982
120.118
117.335
113.281
107.531
98.9681
88.4974
68.1204
42.618
42.1616
40.928
38.7031
35.3839
30.9749
25.5542
19.2411
12.1754
4.50796
-3.603
-11.9908
-20.4756
-28.859
-36.9225
-44.4254
-51.1032
-56.6758
-60.8526
-63.3318
-63.8154
-62.0512
-57.8117
-51.0352
-41.8439
-30.4879
-17.1946
-2.57807
10.1443
12.1582
42.8505
42.2647
40.9371
38.6148
35.2033
30.7125
25.2212
18.8472
11.7284
4.01305
-4.14291
-12.5747
-21.1038
-29.5322
-37.6411
-45.1903
-51.9158
-57.5374
-61.7693
-64.3278
-64.9297
-63.2805
-59.1927
-52.6245
-43.7148
-32.7543
-20.0317
-5.98491
6.85182
8.81108
42.9282
42.0189
40.3949
37.8112
34.1891
29.5404
23.9401
17.4992
10.3463
2.62034
-5.53193
-13.9541
-22.4744
-30.9005
-39.0162
-46.5824
-53.3355
-58.9924
-63.2647
-65.8684
-66.5261
-64.9854
-61.0236
-54.6304
-45.9644
-35.3512
-23.1369
-9.67429
2.92339
5.68821
42.6134
41.3011
39.3113
36.388
32.4888
27.6323
21.8902
15.3623
8.1636
0.420289
-7.73332
-16.1518
-24.671
-33.1051
-41.2424
-48.8438
-55.6446
-61.3591
-65.6943
-68.3681
-69.1151
-67.6708
-63.8395
-57.6249
-49.1929
-38.8708
-27.0177
-13.9813
-1.5917
2.85038
41.7253
40.0078
37.6649
34.3871
30.1915
25.1124
19.2229
12.6126
5.38044
-2.36136
-10.4925
-18.8812
-27.372
-35.7866
-43.9212
-51.5381
-58.3712
-64.1331
-68.5268
-71.2649
-72.0804
-70.7409
-67.0352
-60.9894
-52.7756
-42.7039
-31.1195
-18.3884
-6.05559
0.383124
40.2484
38.1226
35.4473
31.8265
27.3501
22.0655
16.0466
9.37287
2.12605
-5.59866
-13.6947
-22.0448
-30.5033
-38.8982
-47.0335
-54.6735
-61.5474
-67.3643
-71.8195
-74.6135
-75.4753
-74.1798
-70.5513
-64.6164
-56.5539
-46.6496
-35.2228
-22.6449
-10.1668
-1.72685
38.3247
35.7136
32.7104
28.7684
24.0498
18.6017
12.4906
5.78552
-1.44836
-9.13419
-17.1785
-25.4755
-33.89
-42.2551
-50.3809
-58.0352
-64.9431
-70.8094
-75.321
-78.1593
-79.0372
-77.7598
-74.1649
-68.2841
-60.3061
-50.4939
-39.1329
-26.5719
-13.7882
-3.50966
35.9875
32.8412
29.5387
25.3163
20.4126
14.8591
8.70774
2.01226
-5.17694
-12.7986
-20.773
-29.004
-37.3651
-45.6941
-53.8049
-61.4696
-68.4103
-74.3252
-78.8892
-81.7596
-82.6305
-81.332
-77.716
-71.8251
-63.8633
-54.0756
-42.7084
-30.0614
-16.8742
-4.99412
33.254
29.5688
26.0361
21.6016
16.5883
10.9981
4.86632
-1.77353
-8.88574
-16.4198
-24.3077
-32.4623
-40.7633
-49.0525
-57.1451
-64.8162
-71.7881
-77.7512
-82.3647
-85.2578
-86.103
-84.7489
-81.0614
-75.101
-67.0946
-57.2762
-45.8521
-33.0564
-19.4249
-6.20458
30.1737
25.9942
22.3345
17.782
12.753
7.20302
1.15063
-5.38949
-12.3958
-19.8256
-27.6157
-35.6863
-43.9234
-52.1715
-60.2449
-67.92
-74.9217
-80.9341
-85.5983
-88.5115
-89.3179
-87.8811
-84.0822
-78.0042
-69.906
-60.0175
-48.5063
-35.5366
-21.4649
-7.16268
26.919
22.2511
18.6072
14.0512
9.11343
3.6811
-2.24105
-8.64948
-15.5312
-22.849
-30.5399
-38.5251
-46.6963
-54.9024
-62.9567
-70.6337
-77.6623
-83.7242
-88.4433
-91.3823
-92.1452
-90.6126
-86.6802
-80.4552
-72.2369
-62.2573
-50.6494
-37.5111
-23.037
-7.89279
23.4688
18.4713
15.0813
10.6495
5.90962
0.654402
-5.10781
-11.3759
-18.1332
-25.3417
-32.9405
-40.8464
-48.9526
-57.1144
-65.1461
-72.8185
-79.8669
-85.9748
-90.7513
-93.7296
-94.4564
-92.8301
-88.7646
-82.3907
-74.0499
-63.9806
-52.2876
-39.012
-24.2021
-8.43219
19.6973
14.9817
12.033
7.86539
3.38206
-1.68404
-7.29721
-13.446
-20.0974
-27.2096
-34.7228
-42.5505
-50.5849
-58.6865
-66.6739
-74.3316
-81.3913
-87.532
-92.348
-95.3694
-96.0862
-94.3878
-90.2266
-83.744
-75.3134
-65.1832
-53.4385
-40.0771
-25.0274
-8.84131
16.058
12.1506
9.84215
6.01654
1.74924
-3.17912
-8.69786
-14.7727
-21.3567
-28.3983
-35.8382
-43.5913
-51.5505
-59.5809
-67.5102
-75.1338
-82.1757
-88.2992
-93.1207
-96.1567
-96.875
-95.1468
-90.963
-84.4519
-76.0004
-65.8655
-54.1199
-40.7327
-25.5594
-9.17933
12.9553
10.546
9.03242
5.47328
1.19961
-3.73575
-9.26445
-15.3371
-21.9017
-28.9043
-36.2862
-43.9679
-51.846
-59.79
-67.6331
-75.171
-82.1376
-88.2006
-92.9775
-95.9918
-96.7219
-95.0193
-90.8909
-84.456
-76.0861
-66.0332
-54.3587
-41.0106
-25.8406
-9.38658
116.367
116.323
116.37
116.521
116.75
117.039
117.381
117.771
118.204
118.672
119.163
119.665
120.167
120.65
121.097
121.483
121.773
121.927
121.901
121.636
121.045
120.028
118.438
116.075
112.67
107.793
100.849
90.299
75.1769
35.6649
115.808
115.757
115.787
115.913
116.108
116.356
116.648
116.978
117.342
117.729
118.13
118.53
118.915
119.267
119.568
119.792
119.901
119.852
119.601
119.083
118.208
116.871
114.915
112.138
108.27
102.89
95.4469
84.7546
71.6911
57.565
115.215
115.156
115.169
115.269
115.43
115.634
115.874
116.143
116.436
116.741
117.049
117.345
117.612
117.832
117.987
118.051
117.983
117.736
117.269
116.514
115.382
113.766
111.518
108.456
104.353
98.9051
91.851
82.8335
73.0456
65.2336
114.587
114.521
114.516
114.589
114.714
114.875
115.062
115.269
115.488
115.71
115.925
116.117
116.267
116.356
116.367
116.274
116.034
115.6
114.93
113.961
112.607
110.766
108.312
105.097
100.957
95.7097
89.2623
81.4907
72.592
63.3571
113.927
113.853
113.83
113.875
113.965
114.08
114.213
114.356
114.502
114.641
114.763
114.852
114.886
114.847
114.718
114.474
114.07
113.463
112.611
111.456
109.918
107.908
105.326
102.06
97.9944
93.0182
87.0699
80.0677
71.9783
63.4148
113.235
113.154
113.113
113.13
113.182
113.252
113.33
113.41
113.483
113.539
113.568
113.554
113.476
113.315
113.052
112.663
112.107
111.344
110.332
109.019
107.337
105.212
102.565
99.3131
95.3796
90.6939
85.2215
78.9527
71.9243
64.6125
112.513
112.424
112.365
112.354
112.369
112.393
112.417
112.434
112.435
112.409
112.347
112.233
112.046
111.767
111.379
110.855
110.161
109.26
108.111
106.67
104.881
102.683
100.017
96.8251
93.058
88.6767
83.6722
78.0668
71.9002
65.4725
111.763
111.667
111.59
111.55
111.529
111.507
111.477
111.432
111.361
111.257
111.106
110.894
110.604
110.215
109.71
109.064
108.246
107.224
105.962
104.42
102.556
100.32
97.6698
94.5677
90.9844
86.9008
82.3187
77.2626
71.7614
66.0315
110.988
110.884
110.789
110.722
110.664
110.597
110.514
110.407
110.268
110.087
109.851
109.547
109.158
108.667
108.055
107.299
106.372
105.248
103.893
102.277
100.364
98.1189
95.5102
92.515
89.1184
85.312
81.1018
76.5125
71.571
66.447
110.189
110.078
109.966
109.872
109.778
109.668
109.533
109.367
109.161
108.906
108.589
108.199
107.719
107.133
106.423
105.57
104.551
103.341
101.914
100.244
98.3055
96.0725
93.5232
90.6439
87.4284
83.8757
79.9951
75.8106
71.3469
66.7373
109.37
109.254
109.125
109.005
108.875
108.722
108.538
108.314
108.045
107.72
107.328
106.857
106.292
105.62
104.825
103.888
102.789
101.511
100.03
98.3252
96.3784
94.1728
91.6937
88.9332
85.89
82.5682
78.9797
75.1458
71.0883
66.9129
108.535
108.413
108.269
108.123
107.96
107.766
107.533
107.256
106.926
106.535
106.073
105.528
104.887
104.138
103.267
102.258
101.095
99.7617
98.2422
96.5189
94.5788
92.4114
90.0081
87.3649
84.4838
81.372
78.0419
74.5123
70.8021
66.9967
107.688
107.562
107.402
107.232
107.037
106.804
106.526
106.197
105.81
105.359
104.832
104.22
103.511
102.694
101.756
100.688
99.4726
98.0982
96.5528
94.8238
92.9016
90.78
88.4546
85.9251
83.1954
80.2738
77.1726
73.9084
70.4976
67.0097
106.834
106.703
106.53
106.336
106.111
105.841
105.521
105.144
104.704
104.196
103.611
102.939
102.169
101.293
100.3
99.1819
97.9263
96.5226
94.9625
93.2375
91.3412
89.2701
87.0232
84.6024
82.0129
79.2634
76.3655
73.3337
70.1825
66.9686
105.976
105.842
105.656
105.441
105.187
104.883
104.523
104.102
103.614
103.055
102.417
101.691
100.869
99.9423
98.9039
97.7455
96.459
95.0361
93.4706
91.7572
89.8922
87.8745
85.705
83.3872
80.9269
78.3329
75.6157
72.7883
69.8632
66.8871
105.121
104.984
104.787
104.552
104.271
103.936
103.539
103.078
102.546
101.941
101.256
100.483
99.6155
98.6469
97.5711
96.3818
95.073
93.639
92.0755
90.3796
88.5499
86.5867
84.4924
82.2713
79.9298
77.476
74.9198
72.2725
69.5452
66.7764
104.274
104.135
103.927
103.674
103.369
103.004
102.575
102.077
101.507
100.861
100.134
99.3206
98.4147
97.4114
96.3058
95.0933
93.7697
92.3314
90.7759
89.102
87.3098
85.4009
83.3787
81.2479
79.0149
76.6875
74.2748
71.7866
69.2327
66.6452
103.441
103.3
103.084
102.815
102.488
102.096
101.637
101.106
100.501
99.8197
99.0571
98.209
97.2712
96.2397
95.1111
93.8821
92.5501
91.1131
89.5701
87.9212
86.1677
84.312
82.3581
80.3111
78.1771
75.9635
73.6785
71.3309
68.9295
66.5007
102.628
102.487
102.263
101.979
101.632
101.217
100.731
100.171
99.5366
98.824
98.0307
97.1537
96.1896
95.1359
93.9901
92.7503
91.4151
89.9838
88.4566
86.8346
85.1198
83.3155
81.4258
79.4559
77.4118
75.3003
73.129
70.9057
68.6381
66.3485
101.842
101.701
101.471
101.174
100.809
100.373
99.8637
99.279
98.6181
97.8791
97.0602
96.1593
95.1742
94.1034
92.9454
91.6995
90.3653
88.943
87.4339
85.8396
84.163
82.4075
80.5775
78.6782
76.7154
74.6954
72.6249
70.5112
68.3612
66.1932
101.09
100.95
100.714
100.406
100.026
99.5719
99.0417
98.4353
97.752
96.9909
96.1508
95.2305
94.229
93.1456
91.9797
90.7315
89.4014
87.9906
86.5007
84.9342
83.2943
81.5847
79.8098
77.9747
76.0849
74.1463
72.1651
70.1478
68.1006
66.0389
100.38
100.241
100.001
99.6826
99.2893
98.8191
98.2714
97.6465
96.9443
96.1648
95.3074
94.3719
93.358
92.2657
91.0955
89.8479
88.5243
87.1263
85.6562
84.117
82.5118
80.8447
79.1201
77.3429
75.5183
73.6518
71.7491
69.8161
67.8586
65.8892
99.7191
99.5808
99.3373
99.0107
98.6057
98.1219
97.5593
96.9188
96.201
95.4063
94.5352
93.588
92.565
91.467
90.2949
89.0502
87.7346
86.3502
84.8998
83.3864
81.8136
80.1854
78.5061
76.7805
75.0135
73.2103
71.3762
69.5165
67.6365
65.7469
99.1152
98.9781
98.7316
98.3975
97.9824
97.487
96.912
96.2585
95.528
94.7214
93.8396
92.8835
91.8542
90.753
89.5813
88.341
87.0342
85.6635
84.2319
82.7426
81.1994
79.6061
77.9671
76.287
74.5704
72.8223
71.0474
69.2509
67.4375
65.6162
98.577
98.4409
98.1914
97.8506
97.4266
96.9214
96.336
95.6719
94.9311
94.1149
93.2249
92.2624
91.229
90.1263
88.9563
87.7212
86.4235
85.0661
83.6519
82.1845
80.6676
79.1051
77.5013
75.8606
74.1873
72.4862
70.7618
69.0187
67.2615
65.4977
98.1132
97.9776
97.7246
97.3773
96.9458
96.4326
95.8389
95.1666
94.4177
93.5944
92.6984
91.7316
90.6958
89.593
88.4257
87.1962
85.9073
84.5619
83.1635
81.7154
80.2214
78.6854
77.1116
75.5042
73.8674
72.2057
70.5235
68.825
67.1146
65.3987
97.7337
97.5972
97.3388
96.9843
96.5456
96.0255
95.4248
94.7456
93.9906
93.1619
92.2616
91.2919
90.255
89.1531
87.9888
86.7647
85.4838
84.1492
82.7642
81.3324
79.8575
78.3435
76.7942
75.2139
73.6067
71.9768
70.3283
68.6654
66.9921
65.3136
97.45
97.3099
97.044
96.683
96.2392
95.7139
95.1078
94.4235
93.6638
92.8312
91.9281
90.9566
89.9192
88.8185
87.6571
86.4378
85.1636
83.8379
82.4639
81.0453
79.5858
78.0891
76.5593
75.0003
73.4163
71.8112
70.189
68.5539
66.9097
65.2612
97.2759
97.1143
96.8324
96.4659
96.0195
95.4911
94.8816
94.1943
93.4321
92.5976
91.6931
90.7212
89.6842
88.5849
87.426
86.2105
84.9415
83.6222
82.256
80.8466
79.3975
77.9127
76.396
74.8513
73.2826
71.6939
70.089
68.4719
66.8464
65.2161
97.2746
97.0471
96.7371
96.3646
95.9154
95.3834
94.7705
94.0806
93.3166
92.4809
91.5759
90.604
89.5678
88.47
87.3135
86.1012
84.8361
83.5217
82.1612
80.7582
79.3164
77.8396
76.3316
74.7962
73.2374
71.6591
70.065
68.4589
66.8446
65.2253
-41.7292
-19.9253
-4.53713
45.0546
39.1386
31.4229
55.7486
47.9777
41.025
53.0342
46.4146
41.2197
55.0205
49.3711
44.5803
57.539
52.5345
48.0988
59.22
54.7737
50.8062
60.4929
56.5564
53.0368
61.5276
58.0267
54.8966
62.3351
59.2008
56.4049
62.9459
60.1227
57.6118
63.3997
60.8417
58.5732
63.7289
61.3977
59.3361
63.9594
61.8232
59.9391
64.1127
62.1451
60.4142
64.2061
62.3852
60.787
64.2532
62.5606
61.0779
64.2649
62.6847
61.3029
64.2497
62.7683
61.4746
64.2148
62.8202
61.6035
64.1658
62.8474
61.6978
64.1081
62.8562
61.765
64.0454
62.8513
61.8106
63.9834
62.839
61.8414
63.9227
62.8205
61.8595
63.8726
62.8055
61.8744
63.8254
62.7866
61.88
63.8043
62.7871
61.8981
63.7783
62.7765
61.9012
63.8068
62.8188
61.9506
8.27843
11.1857
9.90986
6.18222
1.67204
-3.4275
-9.07499
-15.2151
-21.7992
-28.7823
-36.1119
-43.7164
-51.4987
-59.3332
-67.0579
-74.4693
-81.3099
-87.2588
-91.935
-94.8802
-95.6059
-93.9536
-89.9638
-83.7307
-75.5683
-65.7039
-54.1872
-40.9556
-25.8822
-9.45867
27.5183
19.754
13.7996
8.41586
3.10628
-2.42258
-8.29197
-14.5309
-21.1373
-28.0905
-35.35
-42.8529
-50.5093
-58.1991
-65.7652
-73.0082
-79.6771
-85.462
-89.9922
-92.8384
-93.5618
-92.0056
-88.2277
-82.3017
-74.4594
-64.8845
-53.6131
-40.5831
-25.7014
-9.43491
32.455
22.8492
16.4338
10.7074
4.87905
-1.07803
-7.1795
-13.497
-20.087
-26.9641
-34.1062
-41.4607
-48.9447
-56.4432
-63.804
-70.8328
-77.2867
-82.8678
-87.2251
-89.9671
-90.7113
-89.2989
-85.7796
-80.2374
-72.8005
-63.5957
-52.6445
-39.896
-25.3011
-9.32359
33.7037
24.7155
18.0218
12.0915
6.18451
0.186636
-5.93755
-12.2425
-18.7677
-25.5253
-32.5015
-39.6548
-46.9121
-54.1656
-61.2698
-68.0376
-74.2358
-79.5829
-83.7536
-86.398
-87.1907
-85.9258
-82.7327
-77.6272
-70.6455
-61.8609
-51.2855
-38.8913
-24.6806
-9.13072
37.5627
28.9683
21.4051
14.5874
8.16516
1.91684
-4.31003
-10.6247
-17.091
-23.7321
-30.5398
-37.4789
-44.4852
-51.4612
-58.2725
-64.7438
-70.657
-75.751
-79.7298
-82.2838
-83.1335
-82.0918
-79.2311
-74.5595
-68.0358
-59.6867
-49.5242
-37.5537
-23.8326
-8.86218
41.8565
33.9229
25.9448
18.4291
11.431
4.75947
-1.76087
-8.24412
-14.7647
-21.3656
-28.0584
-34.8222
-41.6039
-48.3175
-54.8413
-61.016
-66.6428
-71.4857
-75.2803
-77.755
-78.6671
-77.8495
-75.3205
-71.0528
-64.9585
-57.041
-47.3252
-35.8572
-22.7483
-8.5273
45.4422
38.3793
30.5838
22.8922
15.6176
8.65522
1.86626
-4.83133
-11.4879
-18.1387
-24.7996
-31.4599
-38.0786
-44.5823
-50.8638
-56.7808
-62.1553
-66.7777
-70.4147
-72.8285
-73.8049
-73.1871
-70.9459
-67.0259
-61.3272
-53.8495
-44.6367
-33.7755
-21.4243
-8.13718
48.3956
42.1767
34.8998
27.4348
20.2106
13.204
6.32125
-0.484546
-7.23182
-13.9335
-20.5933
-27.1971
-33.7064
-40.0559
-46.1501
-51.8626
-57.0353
-61.4827
-64.9995
-67.3756
-68.4165
-67.9645
-65.9567
-62.3405
-57.0359
-50.0456
-41.4294
-31.3071
-19.8734
-7.69987
50.8271
45.3463
38.7135
31.7076
24.7843
17.9681
11.1971
4.45417
-2.25265
-8.9146
-15.5195
-22.043
-28.4426
-34.654
-40.5883
-46.1304
-51.1387
-55.4478
-58.8756
-61.2337
-62.3416
-62.0375
-60.2418
-56.9307
-52.0634
-45.6455
-37.7444
-28.501
-18.1333
-7.21663
52.7976
47.9406
41.959
35.5178
29.0481
22.5895
16.1015
9.58761
3.07144
-3.42271
-9.86917
-16.2338
-22.4685
-28.5075
-34.265
-39.6337
-44.4842
-48.6677
-52.0204
-54.372
-55.5549
-55.4098
-53.8532
-50.8948
-46.5353
-40.7841
-33.709
-25.4598
-16.265
-6.68407
54.3843
50.0487
44.6695
38.809
32.8516
26.8395
20.7473
14.5852
8.38263
2.17356
-4.00749
-10.12
-16.1119
-21.9167
-27.4514
-32.6149
-37.2884
-41.3367
-44.6123
-46.9616
-48.2324
-48.2785
-47.0173
-44.4771
-40.6931
-35.6807
-29.506
-22.3174
-14.3414
-6.10089
55.6633
51.7657
46.919
41.6014
36.1519
30.6166
24.9737
19.2292
13.4154
7.57193
1.73672
-4.04733
-9.72735
-15.238
-20.5
-25.4193
-29.8872
-33.7815
-36.9705
-39.3177
-40.689
-40.9591
-40.0474
-37.979
-34.8134
-30.574
-25.325
-19.2069
-12.4336
-5.47416
56.6956
53.1688
48.7833
43.9513
38.9776
33.9086
28.7186
23.4083
18.0131
12.5737
7.12729
1.71588
-3.60924
-8.78598
-13.7406
-18.3869
-22.627
-26.3519
-29.4455
-31.7889
-33.2668
-33.7755
-33.2367
-31.6751
-29.1395
-25.6675
-21.3239
-16.2368
-10.6007
-4.82068
57.5293
54.3189
50.3311
45.9281
41.3864
36.7467
31.9812
27.0918
22.1128
17.081
12.0315
7.00429
2.04731
-2.78214
-7.41697
-11.78
-15.7841
-19.3339
-22.3285
-24.6659
-26.2485
-26.9914
-26.831
-25.7692
-23.8442
-21.1025
-17.6096
-13.4801
-8.88497
-4.16306
58.2031
55.2647
51.621
47.5944
43.4356
39.1792
34.7996
30.3021
25.7152
21.0704
16.4014
11.7453
7.14562
2.65419
-1.66908
-5.756
-9.53049
-12.91
-15.808
-18.1377
-19.8176
-20.778
-20.9689
-20.3763
-19.022
-16.954
-14.2376
-10.9741
-7.3107
-3.52406
58.748
56.0447
52.6993
49.0006
45.1774
41.2605
37.2281
33.0851
28.8541
24.5636
20.2452
15.9324
11.6642
7.48676
3.4529
-0.377752
-3.93936
-7.16111
-9.96934
-12.2909
-14.0577
-15.212
-15.7141
-15.543
-14.7061
-13.2452
-11.223
-8.72878
-5.88762
-2.92207
59.1882
56.6885
53.6023
50.1893
46.6592
43.0417
39.3175
35.489
31.5759
27.604
23.6011
19.5973
15.6277
11.733
7.95955
4.35903
0.988183
-2.09249
-4.82053
-7.13428
-8.97658
-10.2994
-11.0693
-11.2665
-10.8887
-9.96534
-8.55495
-6.73639
-4.61508
-2.36901
59.543
57.2196
54.3587
51.1948
47.9209
44.5661
41.1127
37.5614
33.9304
30.2411
26.5174
22.7873
19.0821
15.4374
11.8936
8.49562
5.29212
2.33481
-0.323285
-2.63007
-4.53734
-6.0044
-7.00219
-7.51589
-7.53812
-7.08511
-6.20937
-4.98013
-3.48635
-1.87059
59.8274
57.6567
54.9917
52.0449
48.9948
45.8697
42.6537
39.3466
35.9632
32.5213
29.0425
25.5527
22.0793
18.6533
15.3098
12.0879
9.02942
6.17863
3.58067
1.27975
-0.683261
-2.27372
-3.46644
-4.24877
-4.61327
-4.56867
-4.15762
-3.44013
-2.49181
-1.42784
60.0542
58.0155
55.5206
52.763
49.9079
46.9831
43.9746
40.8807
37.7124
34.4859
31.2214
27.9414
24.6696
21.4335
18.2635
15.1936
12.2599
9.50041
6.95375
4.65762
2.64688
0.95117
-0.407627
-1.41821
-2.07423
-2.38112
-2.37145
-2.0965
-1.62089
-1.03871
60.2333
58.3085
55.9612
53.3682
50.6827
47.9318
45.1035
42.1937
39.2112
36.1722
33.0943
29.9961
26.8988
23.8264
20.8057
17.8663
15.0394
12.3577
9.85462
7.56233
5.51079
3.72556
2.22577
1.02193
0.117952
-0.490011
-0.825073
-0.931006
-0.863355
-0.699872
60.3736
58.5465
56.3265
53.8759
51.3379
48.738
46.0645
43.3128
40.4907
37.6134
34.6961
31.7543
28.8068
25.8748
22.982
20.1539
17.4179
14.8024
12.336
10.0468
7.9605
6.09936
4.48018
3.11272
1.99871
1.13522
0.505931
0.0739106
-0.208692
-0.406944
60.4819
58.7382
56.6273
54.2988
51.888
49.4187
46.8777
44.2608
41.5763
38.8372
36.0565
33.2479
30.4281
27.6156
24.8313
22.0977
19.4385
16.8787
14.4432
12.1563
10.0406
8.11528
6.39529
4.88939
3.59901
2.52083
1.64203
0.932634
0.351476
-0.15657
60.566
58.8929
56.8748
54.6503
52.347
49.9881
47.56
45.0581
42.4904
39.868
37.2024
34.5063
31.794
29.0822
26.3891
23.7347
21.1399
18.6266
16.2167
13.9317
11.7911
9.81207
8.00771
6.38594
4.94818
3.69086
2.60288
1.66005
0.826926
0.056113
60.6292
59.0152
57.075
54.9379
52.7245
50.4573
48.1236
45.7184
43.2483
40.7234
38.1539
35.551
32.928
30.2996
27.6821
25.0932
22.5515
20.0764
17.6875
15.4037
13.2424
11.2188
9.34463
7.627
6.06743
4.66222
3.40127
2.26478
1.22211
0.232287
60.6804
59.1147
57.2386
55.1734
53.034
50.8419
48.5853
46.2591
43.869
41.4239
38.9327
36.4058
33.8553
31.2948
28.7386
26.2026
23.7038
21.2596
18.8874
16.6043
14.4261
12.3662
10.4354
8.64001
6.98174
5.45661
4.05528
2.76112
1.54729
0.377722
60.7163
59.1891
57.3639
55.3558
53.2749
51.1425
48.9471
46.6833
44.3561
41.9738
39.5445
37.0775
34.5842
32.0768
29.5687
27.0742
24.6089
22.1886
19.8293
17.5467
15.3549
13.2665
11.291
9.43453
7.69853
6.07923
4.56809
3.14989
1.80116
0.490267
60.7548
59.2561
57.4697
55.5049
53.468
51.3804
49.2308
47.0137
44.7335
42.3979
40.0147
37.5926
35.1418
32.6738
30.201
27.737
25.296
22.893
20.5429
18.2599
16.0576
13.9473
11.9381
10.0356
8.24107
6.55106
4.95686
3.44447
1.99281
0.574037
60.7748
59.2942
57.5334
55.598
53.5911
51.5334
49.4145
47.2286
44.9797
42.6751
40.3228
37.9307
35.5083
33.0666
30.6175
28.1738
25.7493
23.358
21.0141
18.7312
16.5221
14.3976
12.3662
10.4334
8.60068
6.86477
5.21666
3.6417
2.11946
0.623614
60.8247
59.3463
57.5989
55.6805
53.69
51.6481
49.5449
47.3749
45.1416
42.8524
40.5149
38.137
35.7278
33.298
30.8592
28.4241
26.0061
23.6188
21.2762
18.9916
16.7773
14.644
12.5998
10.6497
8.79434
7.03029
5.34991
3.73908
2.17532
0.626672
)
;

boundaryField
{
    inlet
    {
        type            zeroGradient;
    }
    outlet
    {
        type            fixedValue;
        value           uniform 0;
    }
    flap
    {
        type            zeroGradient;
    }
    upperWall
    {
        type            zeroGradient;
    }
    lowerWall
    {
        type            zeroGradient;
    }
    frontAndBack
    {
        type            empty;
    }
}


// ************************************************************************* //
