/*--------------------------------*- C++ -*----------------------------------*\
| =========                 |                                                 |
| \\      /  F ield         | OpenFOAM: The Open Source CFD Toolbox           |
|  \\    /   O peration     | Version:  2006                                  |
|   \\  /    A nd           | Website:  www.openfoam.com                      |
|    \\/     M anipulation  |                                                 |
\*---------------------------------------------------------------------------*/
FoamFile
{
    version     2.0;
    format      ascii;
    class       pointVectorField;
    location    "0.7";
    object      pointDisplacement;
}
// * * * * * * * * * * * * * * * * * * * * * * * * * * * * * * * * * * * * * //

dimensions      [0 1 0 0 0 0 0];


internalField   nonuniform List<vector> 
5828
(
(0 0 0)
(0.00174875 0 0)
(0.00339991 0 0)
(0.00503828 0 0)
(0.00673351 0 0)
(0.00853231 0 0)
(0.0104637 0 0)
(0.012541 0 0)
(0.0147619 0 0)
(0.0171083 0 0)
(0.0195465 0 0)
(0.0220279 0 0)
(0.0244895 0 0)
(0.0268544 0 0)
(0.0290337 0 0)
(0.03093 0 0)
(0.0324416 0 0)
(0.033469 0 0)
(0.0339204 0 0)
(0.0337202 0 0)
(0.0328159 0 0)
(0.0311832 0 0)
(0.0288315 0 0)
(0.0258073 0 0)
(0.0221982 0 0)
(0.0181396 0 0)
(0.0138199 0 0)
(0.00949319 0 0)
(0.00551733 0 0)
(0.00248937 0 0)
(0 0 0)
(0 0 0)
(0.00173787 0 1.67658e-07)
(0.00338072 0 4.30628e-07)
(0.00501239 0 8.96721e-07)
(0.00670183 0 1.68577e-06)
(0.00849577 0 2.94184e-06)
(0.0104235 0 4.84196e-06)
(0.0124987 0 7.60244e-06)
(0.0147195 0 1.1483e-05)
(0.0170685 0 1.67899e-05)
(0.0195129 0 2.38808e-05)
(0.0220043 0 3.31667e-05)
(0.0244811 0 4.51441e-05)
(0.0268673 0 6.04269e-05)
(0.0290751 0 7.97736e-05)
(0.0310078 0 0.000104148)
(0.0325648 0 0.000134798)
(0.0336471 0 0.00017335)
(0.0341633 0 0.000221672)
(0.0340379 0 0.000282126)
(0.0332189 0 0.000357765)
(0.0316824 0 0.000452114)
(0.0294378 0 0.000569212)
(0.0265325 0 0.0007136)
(0.0230541 0 0.000890383)
(0.0191414 0 0.00110582)
(0.01499 0 0.00136595)
(0.0108674 0 0.00167348)
(0.00715103 0 0.00201752)
(0.00444173 0 0.00233903)
(0.00261904 0 0.002632)
(0 0 0)
(0.00172567 0 3.09418e-07)
(0.00335972 0 8.07113e-07)
(0.00498492 0 1.70365e-06)
(0.00666965 0 3.23374e-06)
(0.00846094 0 5.68021e-06)
(0.0103887 0 9.39024e-06)
(0.0124676 0 1.4788e-05)
(0.0146974 0 2.23822e-05)
(0.0170624 0 3.27706e-05)
(0.0195311 0 4.66515e-05)
(0.0220571 0 6.48139e-05)
(0.0245816 0 8.8209e-05)
(0.0270318 0 0.000118017)
(0.0293226 0 0.00015568)
(0.03136 0 0.000203025)
(0.0330463 0 0.000262412)
(0.034284 0 0.000336829)
(0.0349835 0 0.000429867)
(0.0350716 0 0.000546135)
(0.0344975 0 0.000691382)
(0.0332381 0 0.000872227)
(0.0313046 0 0.00109611)
(0.0287463 0 0.00137104)
(0.0256522 0 0.00170545)
(0.0221617 0 0.00210762)
(0.0184793 0 0.00258246)
(0.0149 0 0.00312654)
(0.0118338 0 0.00371266)
(0.00986321 0 0.00425475)
(0.00849873 0 0.00466638)
(0 0 0)
(0.00172397 0 4.04393e-07)
(0.00335788 0 1.08581e-06)
(0.00498457 0 2.34851e-06)
(0.00667297 0 4.53262e-06)
(0.00847062 0 8.0488e-06)
(0.0104083 0 1.33996e-05)
(0.0125027 0 2.11987e-05)
(0.0147558 0 3.21793e-05)
(0.0171544 0 4.71984e-05)
(0.0196687 0 6.72326e-05)
(0.0222552 0 9.33913e-05)
(0.0248601 0 0.000127021)
(0.0274155 0 0.000169755)
(0.0298405 0 0.000223573)
(0.032046 0 0.000290971)
(0.0339384 0 0.000375141)
(0.0354237 0 0.000480042)
(0.0364166 0 0.000610773)
(0.0368482 0 0.00077386)
(0.0366687 0 0.000977141)
(0.0358573 0 0.00122974)
(0.034427 0 0.00154175)
(0.032429 0 0.00192364)
(0.029957 0 0.00238539)
(0.0271488 0 0.00293366)
(0.0242023 0 0.00356842)
(0.0214107 0 0.00427515)
(0.0192028 0 0.00500298)
(0.0181354 0 0.00562746)
(0.0173444 0 0.00603151)
(0 0 0)
(0.0017243 0 4.33597e-07)
(0.00335966 0 1.22682e-06)
(0.00498978 0 2.76493e-06)
(0.00668468 0 5.47977e-06)
(0.00849245 0 9.89135e-06)
(0.0104449 0 1.66352e-05)
(0.0125616 0 2.64873e-05)
(0.0148476 0 4.03679e-05)
(0.0172921 0 5.93354e-05)
(0.0198685 0 8.45599e-05)
(0.0225384 0 0.000117403)
(0.0252537 0 0.0001595)
(0.0279526 0 0.00021276)
(0.0305602 0 0.000279495)
(0.032994 0 0.000362607)
(0.0351672 0 0.000465775)
(0.0369921 0 0.00059363)
(0.0383892 0 0.00075224)
(0.039293 0 0.000949285)
(0.0396551 0 0.00119402)
(0.039458 0 0.00149732)
(0.0387162 0 0.00187098)
(0.0374793 0 0.00232675)
(0.0358444 0 0.00287454)
(0.0339525 0 0.00351839)
(0.0319928 0 0.00425221)
(0.0302145 0 0.00504947)
(0.0290146 0 0.00583867)
(0.0289493 0 0.00646679)
(0.0286712 0 0.0068392)
(0 0 0)
(0.00172661 0 3.7923e-07)
(0.00336479 0 1.19265e-06)
(0.00500002 0 2.89002e-06)
(0.00670343 0 5.97562e-06)
(0.00852398 0 1.10558e-05)
(0.0104958 0 1.88737e-05)
(0.0126412 0 3.03307e-05)
(0.0149684 0 4.64842e-05)
(0.0174697 0 6.85208e-05)
(0.0201227 0 9.77363e-05)
(0.0228964 0 0.00013564)
(0.0257491 0 0.000183983)
(0.0286253 0 0.000244758)
(0.0314587 0 0.000320357)
(0.0341754 0 0.000413772)
(0.0366976 0 0.000528794)
(0.0389466 0 0.000670269)
(0.0408495 0 0.0008445)
(0.0423461 0 0.00105946)
(0.043393 0 0.00132506)
(0.0439736 0 0.001653)
(0.0440985 0 0.00205555)
(0.0438128 0 0.00254466)
(0.0432136 0 0.00312959)
(0.042444 0 0.003812)
(0.0416838 0 0.00458024)
(0.041142 0 0.00540007)
(0.0411233 0 0.00619074)
(0.042164 0 0.00677928)
(0.0424229 0 0.00714872)
(0 0 0)
(0.00172991 0 2.26007e-07)
(0.00337236 0 9.51319e-07)
(0.00501463 0 2.67062e-06)
(0.00672827 0 5.93855e-06)
(0.0085638 0 1.1423e-05)
(0.0105588 0 1.99434e-05)
(0.0127382 0 3.24809e-05)
(0.015113 0 5.01681e-05)
(0.0176802 0 7.42531e-05)
(0.0204235 0 0.000106083)
(0.0233183 0 0.000147168)
(0.0263301 0 0.000199189)
(0.0294124 0 0.000264014)
(0.0325082 0 0.000343828)
(0.035554 0 0.000441354)
(0.0384836 0 0.000560041)
(0.0412291 0 0.000704322)
(0.0437263 0 0.000880035)
(0.0459232 0 0.0010947)
(0.0477865 0 0.00135776)
(0.0492975 0 0.00168036)
(0.0504605 0 0.00207412)
(0.0513175 0 0.00255053)
(0.0519532 0 0.00311815)
(0.0525038 0 0.00377592)
(0.053138 0 0.00450764)
(0.0540345 0 0.00527505)
(0.0554002 0 0.00599738)
(0.0577057 0 0.00648888)
(0.0586286 0 0.00683669)
(0 0 0)
(0.00173409 0 -3.73829e-08)
(0.00338196 0 4.7891e-07)
(0.00503255 0 2.06613e-06)
(0.00675782 0 5.30726e-06)
(0.00861089 0 1.09057e-05)
(0.0106322 0 1.9718e-05)
(0.0128492 0 3.27567e-05)
(0.0152766 0 5.11678e-05)
(0.0179172 0 7.6197e-05)
(0.0207615 0 0.00010914)
(0.0237903 0 0.000151348)
(0.0269781 0 0.000204263)
(0.0302891 0 0.000269405)
(0.0336765 0 0.000348426)
(0.03709 0 0.000443384)
(0.0404769 0 0.000556928)
(0.0437801 0 0.000692415)
(0.0469461 0 0.000854431)
(0.0499331 0 0.00104926)
(0.0527183 0 0.00128467)
(0.0552875 0 0.00156987)
(0.0576461 0 0.00191469)
(0.0598336 0 0.00232869)
(0.0619093 0 0.00281923)
(0.0639803 0 0.00338384)
(0.0662034 0 0.00400206)
(0.0687254 0 0.00463191)
(0.0716652 0 0.00519758)
(0.0753796 0 0.00551008)
(0.0770532 0 0.00575143)
(0 0 0)
(0.00173894 0 -4.1846e-07)
(0.00339362 0 -2.40416e-07)
(0.00505333 0 1.05214e-06)
(0.00679117 0 4.04484e-06)
(0.00866355 0 9.44817e-06)
(0.0107134 0 1.81183e-05)
(0.0129708 0 3.10507e-05)
(0.0154545 0 4.93455e-05)
(0.0181735 0 7.41619e-05)
(0.0211245 0 0.000106638)
(0.0242962 0 0.000147846)
(0.0276725 0 0.000198815)
(0.0312283 0 0.000260476)
(0.0349293 0 0.000333665)
(0.0387398 0 0.000419347)
(0.0426197 0 0.000518834)
(0.0465252 0 0.000633799)
(0.0504177 0 0.000766719)
(0.0542698 0 0.000921526)
(0.0580676 0 0.00110346)
(0.0618024 0 0.0013189)
(0.065488 0 0.00157445)
(0.0691636 0 0.00187601)
(0.072871 0 0.00222792)
(0.0766697 0 0.00262779)
(0.0806801 0 0.00305335)
(0.0850123 0 0.00345987)
(0.0896934 0 0.00378009)
(0.0948993 0 0.00384003)
(0.0972814 0 0.00392924)
(0 0 0)
(0.00174414 0 -9.21346e-07)
(0.00340649 0 -1.21513e-06)
(0.005076 0 -3.83987e-07)
(0.00682768 0 2.13478e-06)
(0.00872048 0 7.02767e-06)
(0.0107999 0 1.51148e-05)
(0.013099 0 2.73272e-05)
(0.0156412 0 4.46594e-05)
(0.0184403 0 6.80965e-05)
(0.0215011 0 9.85217e-05)
(0.0248212 0 0.000136625)
(0.0283933 0 0.000182853)
(0.032203 0 0.000237327)
(0.0362297 0 0.000299817)
(0.040451 0 0.000369836)
(0.0448408 0 0.000446859)
(0.0493746 0 0.000530245)
(0.0540321 0 0.000619596)
(0.058804 0 0.000715274)
(0.0636852 0 0.000818811)
(0.068675 0 0.000932704)
(0.073796 0 0.00105947)
(0.0790872 0 0.00120033)
(0.0845863 0 0.00135464)
(0.090318 0 0.00151876)
(0.0963297 0 0.00167382)
(0.102664 0 0.00177744)
(0.109257 0 0.00177408)
(0.116025 0 0.00152813)
(0.119072 0 0.00147454)
(0 0 0)
(0.0017502 0 -1.54632e-06)
(0.00342038 0 -2.44519e-06)
(0.0051002 0 -2.24173e-06)
(0.00686637 0 -4.20221e-07)
(0.00877999 0 3.65259e-06)
(0.0108892 0 1.07254e-05)
(0.0132303 0 2.16214e-05)
(0.015831 0 3.71731e-05)
(0.0187109 0 5.81246e-05)
(0.0218822 0 8.50083e-05)
(0.0253509 0 0.000118017)
(0.0291188 0 0.000156891)
(0.0331829 0 0.000200759)
(0.0375361 0 0.00024807)
(0.0421685 0 0.000296599)
(0.047073 0 0.000343523)
(0.0522456 0 0.000385413)
(0.0576821 0 0.000418509)
(0.0633922 0 0.000438705)
(0.0693893 0 0.000442224)
(0.0756917 0 0.000425795)
(0.0823298 0 0.000386802)
(0.0893415 0 0.00032152)
(0.0967671 0 0.000223091)
(0.104618 0 8.39431e-05)
(0.112852 0 -0.000108019)
(0.121415 0 -0.000386208)
(0.130123 0 -0.000789174)
(0.138565 0 -0.00139674)
(0.142328 0 -0.00160659)
(0 0 0)
(0.00175686 0 -2.28988e-06)
(0.00343501 0 -3.92264e-06)
(0.00512536 0 -4.50593e-06)
(0.0069063 0 -3.59534e-06)
(0.00884055 0 -6.37504e-07)
(0.0109788 0 5.01441e-06)
(0.0133609 0 1.40352e-05)
(0.0160187 0 2.70475e-05)
(0.0189772 0 4.44947e-05)
(0.0222556 0 6.64859e-05)
(0.0258678 0 9.26254e-05)
(0.0298248 0 0.000121854)
(0.0341359 0 0.000152173)
(0.0388065 0 0.000180516)
(0.0438414 0 0.00020269)
(0.0492524 0 0.000213178)
(0.0550512 0 0.000205426)
(0.0612529 0 0.000171766)
(0.067889 0 0.000103229)
(0.0749967 0 -1.02527e-05)
(0.0826186 0 -0.000179446)
(0.0908034 0 -0.000414717)
(0.0995971 0 -0.000726135)
(0.10905 0 -0.00112751)
(0.119167 0 -0.00163251)
(0.129849 0 -0.00224929)
(0.140929 0 -0.00299754)
(0.152012 0 -0.0038867)
(0.162292 0 -0.00492515)
(0.166848 0 -0.00533129)
(0 0 0)
(0.001764 0 -3.14524e-06)
(0.00345014 0 -5.63312e-06)
(0.00515104 0 -7.1546e-06)
(0.0069468 0 -7.35217e-06)
(0.00890092 0 -5.77645e-06)
(0.0110667 0 -1.91508e-06)
(0.0134877 0 4.72736e-06)
(0.0161993 0 1.45233e-05)
(0.019232 0 2.75687e-05)
(0.0226112 0 4.34936e-05)
(0.0263575 0 6.12437e-05)
(0.0304921 0 7.88663e-05)
(0.0350363 0 9.31868e-05)
(0.0400064 0 9.95657e-05)
(0.0454212 0 9.17581e-05)
(0.0513095 0 6.14589e-05)
(0.0576989 0 -1.42192e-06)
(0.0646268 0 -0.000109098)
(0.0721466 0 -0.000275815)
(0.080318 0 -0.000517946)
(0.0892106 0 -0.000854631)
(0.0989011 0 -0.00130635)
(0.109468 0 -0.00189388)
(0.120979 0 -0.0026395)
(0.133449 0 -0.00356558)
(0.146787 0 -0.00468541)
(0.160711 0 -0.00600245)
(0.174535 0 -0.00748113)
(0.186897 0 -0.00902693)
(0.192319 0 -0.00966617)
(0 0 0)
(0.00177163 0 -4.10292e-06)
(0.00346608 0 -7.55594e-06)
(0.00517731 0 -1.01516e-05)
(0.0069868 0 -1.16322e-05)
(0.0089596 0 -1.16731e-05)
(0.0111512 0 -9.92413e-06)
(0.0136078 0 -6.09289e-06)
(0.0163688 0 -8.67483e-08)
(0.0194692 0 7.80994e-06)
(0.0229402 0 1.6715e-05)
(0.0268092 0 2.488e-05)
(0.0311062 0 2.93871e-05)
(0.0358616 0 2.59065e-05)
(0.0411017 0 8.25215e-06)
(0.0468605 0 -3.19764e-05)
(0.0531812 0 -0.000105698)
(0.0601069 0 -0.000226428)
(0.0676943 0 -0.000411051)
(0.0760169 0 -0.000679711)
(0.0851576 0 -0.00105537)
(0.0952144 0 -0.00156534)
(0.106295 0 -0.00224121)
(0.118518 0 -0.00311785)
(0.13199 0 -0.00423027)
(0.146779 0 -0.00561634)
(0.162868 0 -0.00730605)
(0.179921 0 -0.00928985)
(0.196988 0 -0.0114758)
(0.211913 0 -0.0136118)
(0.218382 0 -0.0145317)
(0 0 0)
(0.00177984 0 -5.15124e-06)
(0.00348275 0 -9.66536e-06)
(0.00520381 0 -1.34513e-05)
(0.00702589 0 -1.63703e-05)
(0.00901604 0 -1.82361e-05)
(0.011231 0 -1.88734e-05)
(0.0137194 0 -1.82152e-05)
(0.016524 0 -1.64675e-05)
(0.019684 0 -1.43127e-05)
(0.0232355 0 -1.31564e-05)
(0.0272127 0 -1.54341e-05)
(0.0316512 0 -2.49666e-05)
(0.0365883 0 -4.72202e-05)
(0.0420631 0 -8.99363e-05)
(0.0481221 0 -0.000163642)
(0.0548159 0 -0.000281566)
(0.0622015 0 -0.000460318)
(0.0703559 0 -0.000720928)
(0.0793675 0 -0.00108902)
(0.0893361 0 -0.00159455)
(0.100383 0 -0.00227249)
(0.112647 0 -0.00316471)
(0.126276 0 -0.00431979)
(0.141429 0 -0.00579117)
(0.158257 0 -0.00763864)
(0.176842 0 -0.00991743)
(0.196955 0 -0.0126283)
(0.217745 0 -0.0156428)
(0.236408 0 -0.0184884)
(0.244649 0 -0.0197409)
(0 0 0)
(0.00178894 0 -6.28807e-06)
(0.00350042 0 -1.19541e-05)
(0.00523142 0 -1.70389e-05)
(0.0070655 0 -2.15372e-05)
(0.00907114 0 -2.54125e-05)
(0.0113065 0 -2.8675e-05)
(0.0138221 0 -3.14987e-05)
(0.0166638 0 -3.43982e-05)
(0.0198742 0 -3.84613e-05)
(0.0234936 0 -4.56154e-05)
(0.0275609 0 -5.89587e-05)
(0.0321158 0 -8.31296e-05)
(0.0372031 0 -0.000124706)
(0.0428742 0 -0.000192813)
(0.049182 0 -0.000299716)
(0.0561812 0 -0.000460849)
(0.0639399 0 -0.000695646)
(0.0725483 0 -0.00102839)
(0.0821087 0 -0.00148888)
(0.0927293 0 -0.00211293)
(0.104538 0 -0.0029424)
(0.117691 0 -0.00402705)
(0.13235 0 -0.00542619)
(0.148702 0 -0.00721004)
(0.166917 0 -0.00945611)
(0.187069 0 -0.0122409)
(0.208969 0 -0.0156033)
(0.23167 0 -0.0194516)
(0.251633 0 -0.0232192)
(0.270923 0 -0.0250892)
(0 0 0)
(0.00174875 0 0)
(0.00339991 0 0)
(0.00503828 0 0)
(0.00673351 0 0)
(0.00853231 0 0)
(0.0104637 0 0)
(0.012541 0 0)
(0.0147619 0 0)
(0.0171083 0 0)
(0.0195465 0 0)
(0.0220279 0 0)
(0.0244895 0 0)
(0.0268544 0 0)
(0.0290337 0 0)
(0.03093 0 0)
(0.0324416 0 0)
(0.033469 0 0)
(0.0339204 0 0)
(0.0337202 0 0)
(0.0328159 0 0)
(0.0311832 0 0)
(0.0288315 0 0)
(0.0258073 0 0)
(0.0221982 0 0)
(0.0181396 0 0)
(0.0138199 0 0)
(0.00949319 0 0)
(0.00551733 0 0)
(0.00248937 0 0)
(0 0 0)
(0 0 0)
(0.00173787 0 1.67658e-07)
(0.00338072 0 4.30628e-07)
(0.00501239 0 8.96721e-07)
(0.00670183 0 1.68577e-06)
(0.00849577 0 2.94184e-06)
(0.0104235 0 4.84196e-06)
(0.0124987 0 7.60244e-06)
(0.0147195 0 1.1483e-05)
(0.0170685 0 1.67899e-05)
(0.0195129 0 2.38808e-05)
(0.0220043 0 3.31667e-05)
(0.0244811 0 4.51441e-05)
(0.0268673 0 6.04269e-05)
(0.0290751 0 7.97736e-05)
(0.0310078 0 0.000104148)
(0.0325648 0 0.000134798)
(0.0336471 0 0.00017335)
(0.0341633 0 0.000221672)
(0.0340379 0 0.000282126)
(0.0332189 0 0.000357765)
(0.0316824 0 0.000452114)
(0.0294378 0 0.000569212)
(0.0265325 0 0.0007136)
(0.0230541 0 0.000890383)
(0.0191414 0 0.00110582)
(0.01499 0 0.00136595)
(0.0108674 0 0.00167348)
(0.00715103 0 0.00201752)
(0.00444173 0 0.00233903)
(0.00261904 0 0.002632)
(0 0 0)
(0.00172567 0 3.09418e-07)
(0.00335972 0 8.07113e-07)
(0.00498492 0 1.70365e-06)
(0.00666965 0 3.23374e-06)
(0.00846094 0 5.68021e-06)
(0.0103887 0 9.39024e-06)
(0.0124676 0 1.4788e-05)
(0.0146974 0 2.23822e-05)
(0.0170624 0 3.27706e-05)
(0.0195311 0 4.66515e-05)
(0.0220571 0 6.48139e-05)
(0.0245816 0 8.8209e-05)
(0.0270318 0 0.000118017)
(0.0293226 0 0.00015568)
(0.03136 0 0.000203025)
(0.0330463 0 0.000262412)
(0.034284 0 0.000336829)
(0.0349835 0 0.000429867)
(0.0350716 0 0.000546135)
(0.0344975 0 0.000691382)
(0.0332381 0 0.000872227)
(0.0313046 0 0.00109611)
(0.0287463 0 0.00137104)
(0.0256522 0 0.00170545)
(0.0221617 0 0.00210762)
(0.0184793 0 0.00258246)
(0.0149 0 0.00312654)
(0.0118338 0 0.00371266)
(0.00986321 0 0.00425475)
(0.00849873 0 0.00466638)
(0 0 0)
(0.00172397 0 4.04393e-07)
(0.00335788 0 1.08581e-06)
(0.00498457 0 2.34851e-06)
(0.00667297 0 4.53262e-06)
(0.00847062 0 8.0488e-06)
(0.0104083 0 1.33996e-05)
(0.0125027 0 2.11987e-05)
(0.0147558 0 3.21793e-05)
(0.0171544 0 4.71984e-05)
(0.0196687 0 6.72326e-05)
(0.0222552 0 9.33913e-05)
(0.0248601 0 0.000127021)
(0.0274155 0 0.000169755)
(0.0298405 0 0.000223573)
(0.032046 0 0.000290971)
(0.0339384 0 0.000375141)
(0.0354237 0 0.000480042)
(0.0364166 0 0.000610773)
(0.0368482 0 0.00077386)
(0.0366687 0 0.000977141)
(0.0358573 0 0.00122974)
(0.034427 0 0.00154175)
(0.032429 0 0.00192364)
(0.029957 0 0.00238539)
(0.0271488 0 0.00293366)
(0.0242023 0 0.00356842)
(0.0214107 0 0.00427515)
(0.0192028 0 0.00500298)
(0.0181354 0 0.00562746)
(0.0173444 0 0.00603151)
(0 0 0)
(0.0017243 0 4.33597e-07)
(0.00335966 0 1.22682e-06)
(0.00498978 0 2.76493e-06)
(0.00668468 0 5.47977e-06)
(0.00849245 0 9.89135e-06)
(0.0104449 0 1.66352e-05)
(0.0125616 0 2.64873e-05)
(0.0148476 0 4.03679e-05)
(0.0172921 0 5.93354e-05)
(0.0198685 0 8.45599e-05)
(0.0225384 0 0.000117403)
(0.0252537 0 0.0001595)
(0.0279526 0 0.00021276)
(0.0305602 0 0.000279495)
(0.032994 0 0.000362607)
(0.0351672 0 0.000465775)
(0.0369921 0 0.00059363)
(0.0383892 0 0.00075224)
(0.039293 0 0.000949285)
(0.0396551 0 0.00119402)
(0.039458 0 0.00149732)
(0.0387162 0 0.00187098)
(0.0374793 0 0.00232675)
(0.0358444 0 0.00287454)
(0.0339525 0 0.00351839)
(0.0319928 0 0.00425221)
(0.0302145 0 0.00504947)
(0.0290146 0 0.00583867)
(0.0289493 0 0.00646679)
(0.0286712 0 0.0068392)
(0 0 0)
(0.00172661 0 3.7923e-07)
(0.00336479 0 1.19265e-06)
(0.00500002 0 2.89002e-06)
(0.00670343 0 5.97562e-06)
(0.00852398 0 1.10558e-05)
(0.0104958 0 1.88737e-05)
(0.0126412 0 3.03307e-05)
(0.0149684 0 4.64842e-05)
(0.0174697 0 6.85208e-05)
(0.0201227 0 9.77363e-05)
(0.0228964 0 0.00013564)
(0.0257491 0 0.000183983)
(0.0286253 0 0.000244758)
(0.0314587 0 0.000320357)
(0.0341754 0 0.000413772)
(0.0366976 0 0.000528794)
(0.0389466 0 0.000670269)
(0.0408495 0 0.0008445)
(0.0423461 0 0.00105946)
(0.043393 0 0.00132506)
(0.0439736 0 0.001653)
(0.0440985 0 0.00205555)
(0.0438128 0 0.00254466)
(0.0432136 0 0.00312959)
(0.042444 0 0.003812)
(0.0416838 0 0.00458024)
(0.041142 0 0.00540007)
(0.0411233 0 0.00619074)
(0.042164 0 0.00677928)
(0.0424229 0 0.00714872)
(0 0 0)
(0.00172991 0 2.26007e-07)
(0.00337236 0 9.51319e-07)
(0.00501463 0 2.67062e-06)
(0.00672827 0 5.93855e-06)
(0.0085638 0 1.1423e-05)
(0.0105588 0 1.99434e-05)
(0.0127382 0 3.24809e-05)
(0.015113 0 5.01681e-05)
(0.0176802 0 7.42531e-05)
(0.0204235 0 0.000106083)
(0.0233183 0 0.000147168)
(0.0263301 0 0.000199189)
(0.0294124 0 0.000264014)
(0.0325082 0 0.000343828)
(0.035554 0 0.000441354)
(0.0384836 0 0.000560041)
(0.0412291 0 0.000704322)
(0.0437263 0 0.000880035)
(0.0459232 0 0.0010947)
(0.0477865 0 0.00135776)
(0.0492975 0 0.00168036)
(0.0504605 0 0.00207412)
(0.0513175 0 0.00255053)
(0.0519532 0 0.00311815)
(0.0525038 0 0.00377592)
(0.053138 0 0.00450764)
(0.0540345 0 0.00527505)
(0.0554002 0 0.00599738)
(0.0577057 0 0.00648888)
(0.0586286 0 0.00683669)
(0 0 0)
(0.00173409 0 -3.73829e-08)
(0.00338196 0 4.7891e-07)
(0.00503255 0 2.06613e-06)
(0.00675782 0 5.30726e-06)
(0.00861089 0 1.09057e-05)
(0.0106322 0 1.9718e-05)
(0.0128492 0 3.27567e-05)
(0.0152766 0 5.11678e-05)
(0.0179172 0 7.6197e-05)
(0.0207615 0 0.00010914)
(0.0237903 0 0.000151348)
(0.0269781 0 0.000204263)
(0.0302891 0 0.000269405)
(0.0336765 0 0.000348426)
(0.03709 0 0.000443384)
(0.0404769 0 0.000556928)
(0.0437801 0 0.000692415)
(0.0469461 0 0.000854431)
(0.0499331 0 0.00104926)
(0.0527183 0 0.00128467)
(0.0552875 0 0.00156987)
(0.0576461 0 0.00191469)
(0.0598336 0 0.00232869)
(0.0619093 0 0.00281923)
(0.0639803 0 0.00338384)
(0.0662034 0 0.00400206)
(0.0687254 0 0.00463191)
(0.0716652 0 0.00519758)
(0.0753796 0 0.00551008)
(0.0770532 0 0.00575143)
(0 0 0)
(0.00173894 0 -4.1846e-07)
(0.00339362 0 -2.40416e-07)
(0.00505333 0 1.05214e-06)
(0.00679117 0 4.04484e-06)
(0.00866355 0 9.44817e-06)
(0.0107134 0 1.81183e-05)
(0.0129708 0 3.10507e-05)
(0.0154545 0 4.93455e-05)
(0.0181735 0 7.41619e-05)
(0.0211245 0 0.000106638)
(0.0242962 0 0.000147846)
(0.0276725 0 0.000198815)
(0.0312283 0 0.000260476)
(0.0349293 0 0.000333665)
(0.0387398 0 0.000419347)
(0.0426197 0 0.000518834)
(0.0465252 0 0.000633799)
(0.0504177 0 0.000766719)
(0.0542698 0 0.000921526)
(0.0580676 0 0.00110346)
(0.0618024 0 0.0013189)
(0.065488 0 0.00157445)
(0.0691636 0 0.00187601)
(0.072871 0 0.00222792)
(0.0766697 0 0.00262779)
(0.0806801 0 0.00305335)
(0.0850123 0 0.00345987)
(0.0896934 0 0.00378009)
(0.0948993 0 0.00384003)
(0.0972814 0 0.00392924)
(0 0 0)
(0.00174414 0 -9.21346e-07)
(0.00340649 0 -1.21513e-06)
(0.005076 0 -3.83987e-07)
(0.00682768 0 2.13478e-06)
(0.00872048 0 7.02767e-06)
(0.0107999 0 1.51148e-05)
(0.013099 0 2.73272e-05)
(0.0156412 0 4.46594e-05)
(0.0184403 0 6.80965e-05)
(0.0215011 0 9.85217e-05)
(0.0248212 0 0.000136625)
(0.0283933 0 0.000182853)
(0.032203 0 0.000237327)
(0.0362297 0 0.000299817)
(0.040451 0 0.000369836)
(0.0448408 0 0.000446859)
(0.0493746 0 0.000530245)
(0.0540321 0 0.000619596)
(0.058804 0 0.000715274)
(0.0636852 0 0.000818811)
(0.068675 0 0.000932704)
(0.073796 0 0.00105947)
(0.0790872 0 0.00120033)
(0.0845863 0 0.00135464)
(0.090318 0 0.00151876)
(0.0963297 0 0.00167382)
(0.102664 0 0.00177744)
(0.109257 0 0.00177408)
(0.116025 0 0.00152813)
(0.119072 0 0.00147454)
(0 0 0)
(0.0017502 0 -1.54632e-06)
(0.00342038 0 -2.44519e-06)
(0.0051002 0 -2.24173e-06)
(0.00686637 0 -4.20221e-07)
(0.00877999 0 3.65259e-06)
(0.0108892 0 1.07254e-05)
(0.0132303 0 2.16214e-05)
(0.015831 0 3.71731e-05)
(0.0187109 0 5.81246e-05)
(0.0218822 0 8.50083e-05)
(0.0253509 0 0.000118017)
(0.0291188 0 0.000156891)
(0.0331829 0 0.000200759)
(0.0375361 0 0.00024807)
(0.0421685 0 0.000296599)
(0.047073 0 0.000343523)
(0.0522456 0 0.000385413)
(0.0576821 0 0.000418509)
(0.0633922 0 0.000438705)
(0.0693893 0 0.000442224)
(0.0756917 0 0.000425795)
(0.0823298 0 0.000386802)
(0.0893415 0 0.00032152)
(0.0967671 0 0.000223091)
(0.104618 0 8.39431e-05)
(0.112852 0 -0.000108019)
(0.121415 0 -0.000386208)
(0.130123 0 -0.000789174)
(0.138565 0 -0.00139674)
(0.142328 0 -0.00160659)
(0 0 0)
(0.00175686 0 -2.28988e-06)
(0.00343501 0 -3.92264e-06)
(0.00512536 0 -4.50593e-06)
(0.0069063 0 -3.59534e-06)
(0.00884055 0 -6.37504e-07)
(0.0109788 0 5.01441e-06)
(0.0133609 0 1.40352e-05)
(0.0160187 0 2.70475e-05)
(0.0189772 0 4.44947e-05)
(0.0222556 0 6.64859e-05)
(0.0258678 0 9.26254e-05)
(0.0298248 0 0.000121854)
(0.0341359 0 0.000152173)
(0.0388065 0 0.000180516)
(0.0438414 0 0.00020269)
(0.0492524 0 0.000213178)
(0.0550512 0 0.000205426)
(0.0612529 0 0.000171766)
(0.067889 0 0.000103229)
(0.0749967 0 -1.02527e-05)
(0.0826186 0 -0.000179446)
(0.0908034 0 -0.000414717)
(0.0995971 0 -0.000726135)
(0.10905 0 -0.00112751)
(0.119167 0 -0.00163251)
(0.129849 0 -0.00224929)
(0.140929 0 -0.00299754)
(0.152012 0 -0.0038867)
(0.162292 0 -0.00492515)
(0.166848 0 -0.00533129)
(0 0 0)
(0.001764 0 -3.14524e-06)
(0.00345014 0 -5.63312e-06)
(0.00515104 0 -7.1546e-06)
(0.0069468 0 -7.35217e-06)
(0.00890092 0 -5.77645e-06)
(0.0110667 0 -1.91508e-06)
(0.0134877 0 4.72736e-06)
(0.0161993 0 1.45233e-05)
(0.019232 0 2.75687e-05)
(0.0226112 0 4.34936e-05)
(0.0263575 0 6.12437e-05)
(0.0304921 0 7.88663e-05)
(0.0350363 0 9.31868e-05)
(0.0400064 0 9.95657e-05)
(0.0454212 0 9.17581e-05)
(0.0513095 0 6.14589e-05)
(0.0576989 0 -1.42192e-06)
(0.0646268 0 -0.000109098)
(0.0721466 0 -0.000275815)
(0.080318 0 -0.000517946)
(0.0892106 0 -0.000854631)
(0.0989011 0 -0.00130635)
(0.109468 0 -0.00189388)
(0.120979 0 -0.0026395)
(0.133449 0 -0.00356558)
(0.146787 0 -0.00468541)
(0.160711 0 -0.00600245)
(0.174535 0 -0.00748113)
(0.186897 0 -0.00902693)
(0.192319 0 -0.00966617)
(0 0 0)
(0.00177163 0 -4.10292e-06)
(0.00346608 0 -7.55594e-06)
(0.00517731 0 -1.01516e-05)
(0.0069868 0 -1.16322e-05)
(0.0089596 0 -1.16731e-05)
(0.0111512 0 -9.92413e-06)
(0.0136078 0 -6.09289e-06)
(0.0163688 0 -8.67483e-08)
(0.0194692 0 7.80994e-06)
(0.0229402 0 1.6715e-05)
(0.0268092 0 2.488e-05)
(0.0311062 0 2.93871e-05)
(0.0358616 0 2.59065e-05)
(0.0411017 0 8.25215e-06)
(0.0468605 0 -3.19764e-05)
(0.0531812 0 -0.000105698)
(0.0601069 0 -0.000226428)
(0.0676943 0 -0.000411051)
(0.0760169 0 -0.000679711)
(0.0851576 0 -0.00105537)
(0.0952144 0 -0.00156534)
(0.106295 0 -0.00224121)
(0.118518 0 -0.00311785)
(0.13199 0 -0.00423027)
(0.146779 0 -0.00561634)
(0.162868 0 -0.00730605)
(0.179921 0 -0.00928985)
(0.196988 0 -0.0114758)
(0.211913 0 -0.0136118)
(0.218382 0 -0.0145317)
(0 0 0)
(0.00177984 0 -5.15124e-06)
(0.00348275 0 -9.66536e-06)
(0.00520381 0 -1.34513e-05)
(0.00702589 0 -1.63703e-05)
(0.00901604 0 -1.82361e-05)
(0.011231 0 -1.88734e-05)
(0.0137194 0 -1.82152e-05)
(0.016524 0 -1.64675e-05)
(0.019684 0 -1.43127e-05)
(0.0232355 0 -1.31564e-05)
(0.0272127 0 -1.54341e-05)
(0.0316512 0 -2.49666e-05)
(0.0365883 0 -4.72202e-05)
(0.0420631 0 -8.99363e-05)
(0.0481221 0 -0.000163642)
(0.0548159 0 -0.000281566)
(0.0622015 0 -0.000460318)
(0.0703559 0 -0.000720928)
(0.0793675 0 -0.00108902)
(0.0893361 0 -0.00159455)
(0.100383 0 -0.00227249)
(0.112647 0 -0.00316471)
(0.126276 0 -0.00431979)
(0.141429 0 -0.00579117)
(0.158257 0 -0.00763864)
(0.176842 0 -0.00991743)
(0.196955 0 -0.0126283)
(0.217745 0 -0.0156428)
(0.236408 0 -0.0184884)
(0.244649 0 -0.0197409)
(0 0 0)
(0.00178894 0 -6.28807e-06)
(0.00350042 0 -1.19541e-05)
(0.00523142 0 -1.70389e-05)
(0.0070655 0 -2.15372e-05)
(0.00907114 0 -2.54125e-05)
(0.0113065 0 -2.8675e-05)
(0.0138221 0 -3.14987e-05)
(0.0166638 0 -3.43982e-05)
(0.0198742 0 -3.84613e-05)
(0.0234936 0 -4.56154e-05)
(0.0275609 0 -5.89587e-05)
(0.0321158 0 -8.31296e-05)
(0.0372031 0 -0.000124706)
(0.0428742 0 -0.000192813)
(0.049182 0 -0.000299716)
(0.0561812 0 -0.000460849)
(0.0639399 0 -0.000695646)
(0.0725483 0 -0.00102839)
(0.0821087 0 -0.00148888)
(0.0927293 0 -0.00211293)
(0.104538 0 -0.0029424)
(0.117691 0 -0.00402705)
(0.13235 0 -0.00542619)
(0.148702 0 -0.00721004)
(0.166917 0 -0.00945611)
(0.187069 0 -0.0122409)
(0.208969 0 -0.0156033)
(0.23167 0 -0.0194516)
(0.251633 0 -0.0232192)
(0.270923 0 -0.0250892)
(0 0 0)
(0.00303813 0 0)
(0.00808277 0 0)
(0.0154887 0 0)
(0.0241556 0 0)
(0.0329908 0 0)
(0.0410886 0 0)
(0.0478491 0 0)
(0.0529714 0 0)
(0.0563876 0 0)
(0.0581789 0 0)
(0.0585124 0 0)
(0.0575959 0 0)
(0.0556487 0 0)
(0.0528883 0 0)
(0.0495203 0 0)
(0.0457244 0 0)
(0.0416636 0 0)
(0.0374911 0 0)
(0.0333272 0 0)
(0.029259 0 0)
(0.0253593 0 0)
(0.0216829 0 0)
(0.0182613 0 0)
(0.0151104 0 0)
(0.0122249 0 0)
(0.0095769 0 0)
(0.00711751 0 0)
(0.00476995 0 0)
(0.00243445 0 0)
(0 0 0)
(0.00247964 0 -0.00304266)
(0.00500054 0 -0.00305771)
(0.00997808 0 -0.0031934)
(0.0173007 0 -0.00331522)
(0.0258646 0 -0.00341181)
(0.0345598 0 -0.00344338)
(0.0424845 0 -0.00338844)
(0.0490572 0 -0.00325117)
(0.053993 0 -0.00304568)
(0.0572323 0 -0.00279196)
(0.0588616 0 -0.00251167)
(0.0590503 0 -0.00222209)
(0.0580078 0 -0.00193621)
(0.0559533 0 -0.00166299)
(0.0531024 0 -0.00140914)
(0.0496624 0 -0.00118021)
(0.0458113 0 -0.000976546)
(0.0417079 0 -0.00079779)
(0.0375027 0 -0.000643906)
(0.0333136 0 -0.00051285)
(0.0292273 0 -0.000403481)
(0.0253169 0 -0.000314213)
(0.0216357 0 -0.000241722)
(0.0182142 0 -0.000183597)
(0.0150665 0 -0.000137091)
(0.0121857 0 -0.000100228)
(0.00954356 0 -7.15901e-05)
(0.00709127 0 -4.90387e-05)
(0.00475243 0 -3.07756e-05)
(0.00242674 0 -1.50289e-05)
(0 0 0)
(0.00796386 0 -0.00585321)
(0.0104817 0 -0.00598452)
(0.0154658 0 -0.00630279)
(0.0226832 0 -0.00660799)
(0.0310117 0 -0.00682477)
(0.0393252 0 -0.00688327)
(0.0467737 0 -0.00675933)
(0.0528318 0 -0.00647182)
(0.0572483 0 -0.00605425)
(0.0599845 0 -0.00554339)
(0.0611451 0 -0.00498033)
(0.0609106 0 -0.00439961)
(0.0594971 0 -0.00382796)
(0.057124 0 -0.00328358)
(0.0540044 0 -0.00277885)
(0.0503431 0 -0.00232396)
(0.0463172 0 -0.00192135)
(0.0420757 0 -0.0015682)
(0.0377593 0 -0.00126404)
(0.0334819 0 -0.0010071)
(0.029329 0 -0.000793173)
(0.0253719 0 -0.000617506)
(0.0216592 0 -0.000474794)
(0.0182182 0 -0.000360289)
(0.0150595 0 -0.000269065)
(0.0121722 0 -0.000197139)
(0.00952737 0 -0.000140913)
(0.00707616 0 -9.66469e-05)
(0.00474225 0 -6.07803e-05)
(0.00242323 0 -2.97248e-05)
(0 0 0)
(0.0163029 0 -0.00857302)
(0.0188857 0 -0.0088878)
(0.024132 0 -0.00945111)
(0.0313432 0 -0.00996183)
(0.0393479 0 -0.0102825)
(0.047087 0 -0.0103372)
(0.0538244 0 -0.0101195)
(0.0590948 0 -0.00966103)
(0.0626956 0 -0.00901414)
(0.0646404 0 -0.00823769)
(0.065059 0 -0.00738724)
(0.0641495 0 -0.00651338)
(0.062142 0 -0.00565756)
(0.0592561 0 -0.00484578)
(0.0557013 0 -0.00409649)
(0.051676 0 -0.00342155)
(0.0473544 0 -0.00282512)
(0.042877 0 -0.00230466)
(0.038369 0 -0.00185743)
(0.0339382 0 -0.00148)
(0.0296665 0 -0.00116577)
(0.0256194 0 -0.000907598)
(0.0218388 0 -0.000698038)
(0.018348 0 -0.000529933)
(0.015153 0 -0.000396345)
(0.0122379 0 -0.000290971)
(0.00957188 0 -0.000208234)
(0.00710521 0 -0.000142942)
(0.00476102 0 -8.99558e-05)
(0.00243355 0 -4.40521e-05)
(0 0 0)
(0.0270134 0 -0.0114525)
(0.0298871 0 -0.0119535)
(0.035597 0 -0.0127641)
(0.0428461 0 -0.0134499)
(0.050427 0 -0.0138265)
(0.0574358 0 -0.0138346)
(0.0632402 0 -0.0134832)
(0.0674462 0 -0.0128174)
(0.0699508 0 -0.0119139)
(0.070839 0 -0.0108557)
(0.0702738 0 -0.00971283)
(0.0684753 0 -0.00854795)
(0.0656834 0 -0.00741268)
(0.0621206 0 -0.00634133)
(0.0579885 0 -0.00535499)
(0.05348 0 -0.00446727)
(0.0487631 0 -0.00368447)
(0.0439672 0 -0.00300424)
(0.0392033 0 -0.0024215)
(0.0345676 0 -0.00192978)
(0.0301353 0 -0.00152034)
(0.025965 0 -0.00118422)
(0.0220909 0 -0.000911508)
(0.0185293 0 -0.000692465)
(0.0152826 0 -0.000518517)
(0.0123302 0 -0.000381245)
(0.0096364 0 -0.000273169)
(0.00714854 0 -0.000187639)
(0.00478848 0 -0.000118133)
(0.00244784 0 -5.79129e-05)
(0 0 0)
(0.0400315 0 -0.0147253)
(0.0432971 0 -0.0153484)
(0.0495519 0 -0.0163484)
(0.0568115 0 -0.0171364)
(0.0638733 0 -0.0175007)
(0.0699895 0 -0.0173996)
(0.0746219 0 -0.0168535)
(0.0775117 0 -0.0159328)
(0.0786851 0 -0.0147422)
(0.0782858 0 -0.0133808)
(0.0765329 0 -0.0119371)
(0.0736718 0 -0.0104835)
(0.0699422 0 -0.00907552)
(0.0655711 0 -0.00775367)
(0.0607509 0 -0.00654019)
(0.0556662 0 -0.00545074)
(0.0504761 0 -0.00449283)
(0.0452955 0 -0.00366271)
(0.0402229 0 -0.00295306)
(0.0353418 0 -0.00235432)
(0.0307153 0 -0.00185548)
(0.0263931 0 -0.00144579)
(0.0224047 0 -0.00111358)
(0.0187565 0 -0.000846487)
(0.0154445 0 -0.000634138)
(0.0124452 0 -0.000466636)
(0.00971754 0 -0.000334714)
(0.00720378 0 -0.000230134)
(0.00482327 0 -0.000144995)
(0.00246569 0 -7.1149e-05)
(0 0 0)
(0.0554118 0 -0.0184553)
(0.0590163 0 -0.0191351)
(0.0657682 0 -0.0202572)
(0.0729342 0 -0.0210641)
(0.0793317 0 -0.021333)
(0.0843331 0 -0.0210366)
(0.0875428 0 -0.0202208)
(0.0888963 0 -0.0189937)
(0.0885306 0 -0.0174813)
(0.0866602 0 -0.0157976)
(0.0835637 0 -0.0140455)