/*--------------------------------*- C++ -*----------------------------------*\
| =========                 |                                                 |
| \\      /  F ield         | OpenFOAM: The Open Source CFD Toolbox           |
|  \\    /   O peration     | Version:  5.x                                   |
|   \\  /    A nd           | Web:      www.OpenFOAM.org                      |
|    \\/     M anipulation  |                                                 |
\*---------------------------------------------------------------------------*/
FoamFile
{
    version     2.0;
    format      ascii;
    class       surfaceVectorField;
    location    "0.7";
    object      Uf;
}
// * * * * * * * * * * * * * * * * * * * * * * * * * * * * * * * * * * * * * //

dimensions      [0 1 -1 0 0 0 0];

internalField   nonuniform List<vector> 
5457
(
(9.91638 1.05162e-19 0.0234338)
(9.96065 5.06159e-23 0.0369133)
(9.82098 5.22084e-20 0.0295868)
(9.92594 3.17143e-22 0.0434262)
(9.71295 2.85746e-20 0.0346496)
(9.8632 -5.40078e-20 0.0508918)
(9.58962 2.75995e-20 0.0399766)
(9.77551 5.59062e-20 0.0601178)
(9.45091 3.05393e-20 0.0455333)
(9.67026 9.87521e-23 0.0699312)
(9.29696 -1.84847e-21 0.0513536)
(9.54978 3.00302e-20 0.0802399)
(9.12751 2.42319e-21 0.0575782)
(9.41347 -6.10592e-20 0.0912876)
(8.94191 -1.89128e-20 0.0643468)
(9.26036 1.05034e-21 0.103309)
(8.73933 2.18065e-20 0.0717797)
(9.08963 -1.95617e-19 0.116491)
(8.51876 6.93845e-20 0.0799934)
(8.90044 6.82211e-20 0.131008)
(8.27907 -7.64423e-20 0.0891121)
(8.69179 -1.40293e-19 0.147041)
(8.01897 -7.48324e-20 0.0992709)
(8.46252 5.01708e-19 0.16479)
(7.73706 0 0.110614)
(8.21131 3.99951e-21 0.184463)
(7.43185 0 0.123289)
(7.9367 4.38474e-21 0.206271)
(7.10178 0 0.137442)
(7.63719 -3.24942e-19 0.230404)
(6.74532 0 0.153229)
(7.31113 0 0.257033)
(6.36094 0 0.170797)
(6.957 -8.98265e-20 0.286326)
(5.94727 0 0.190245)
(6.57332 7.63221e-19 0.318362)
(5.50323 -1.17472e-19 0.211614)
(6.15867 -8.92345e-19 0.353063)
(5.02821 -2.39567e-19 0.234865)
(5.712 -1.02464e-20 0.390193)
(4.52222 -1.21948e-19 0.259831)
(5.23277 2.11513e-19 0.429281)
(3.98621 0 0.286183)
(4.72113 0 0.469515)
(3.42225 1.56505e-19 0.313366)
(4.17813 0 0.509684)
(2.83389 -8.71141e-19 0.340444)
(3.60622 2.90026e-19 0.548077)
(2.22662 4.6576e-19 0.365733)
(3.00939 -1.3019e-18 0.582144)
(1.60879 3.04778e-18 0.385426)
(2.39372 8.26821e-19 0.608021)
(0.993791 -1.54866e-19 0.384619)
(1.76814 2.2681e-18 0.618961)
(0.411437 -5.0047e-18 0.277318)
(1.14603 -1.72884e-18 0.594261)
(-0.0113905 9.59262e-19 -0.0970206)
(0.524299 -4.46588e-18 0.426922)
(0.221129 5.01339e-18 -0.0107945)
(10.0011 -1.04695e-19 0.0464976)
(9.9896 3.86044e-20 0.0364131)
(9.9701 -1.06843e-19 0.0613251)
(9.98197 -1.44933e-19 0.0575399)
(9.91995 -2.47499e-20 0.0743992)
(9.95005 1.07515e-19 0.0745039)
(9.85243 2.74693e-20 0.0884956)
(9.89366 -8.25083e-20 0.0930169)
(9.76738 9.70787e-23 0.103535)
(9.81895 4.97622e-23 0.112797)
(9.6648 -3.07117e-20 0.11955)
(9.72839 -5.82228e-20 0.133702)
(9.54446 -6.14049e-20 0.136841)
(9.62165 -2.08045e-22 0.156111)
(9.40584 -1.78888e-19 0.155724)
(9.49793 -2.58451e-22 0.180464)
(9.24822 -1.44905e-19 0.176477)
(9.35649 -1.13911e-19 0.207137)
(9.07066 -1.44829e-19 0.199368)
(9.19663 -1.43743e-21 0.236483)
(8.8721 4.48189e-19 0.224683)
(9.01747 -1.41161e-19 0.268874)
(8.65132 5.72621e-19 0.252728)
(8.81796 1.14779e-18 0.304718)
(8.40693 8.37919e-21 0.283818)
(8.59689 -5.8021e-19 0.344445)
(8.13744 -3.2578e-19 0.31826)
(8.35293 4.38553e-21 0.388499)
(7.84127 -3.19864e-19 0.356327)
(8.08463 -3.25004e-19 0.437298)
(7.51681 -9.12319e-20 0.398269)
(7.79037 6.69093e-19 0.491211)
(7.16244 6.86624e-19 0.44428)
(7.46856 -2.08998e-18 0.550588)
(6.77663 -1.5429e-19 0.494388)
(7.11773 2.20497e-18 0.615678)
(6.35802 -7.71756e-19 0.548377)
(6.73623 -2.33164e-18 0.686435)
(5.90562 4.44487e-19 0.605735)
(6.32262 1.6937e-18 0.762473)
(5.41899 3.30683e-19 0.665529)
(5.87582 1.24332e-19 0.842966)
(4.89846 0 0.726248)
(5.39522 0 0.926416)
(4.3455 1.36842e-19 0.785669)
(4.88074 0 1.01043)
(3.76315 -1.61377e-19 0.840484)
(4.33351 -6.10527e-19 1.09148)
(3.15653 -9.20377e-19 0.885482)
(3.75595 3.96005e-18 1.16423)
(2.53443 6.00204e-20 0.911731)
(3.1518 -4.55396e-18 1.21983)
(1.91214 6.7097e-19 0.900564)
(2.52652 6.70572e-19 1.24256)
(1.31231 -1.19821e-18 0.805958)
(1.8857 1.04517e-17 1.19945)
(0.706429 -2.25017e-19 0.553328)
(1.20816 -1.25874e-17 1.02918)
(0.676038 1.01257e-19 0.676027)
(9.99389 -4.54738e-21 0.0505894)
(9.98731 -1.28114e-20 0.039121)
(9.9663 7.39231e-20 0.0738477)
(9.97717 6.55568e-20 0.070115)
(9.91974 4.64535e-20 0.0958197)
(9.94628 -1.60564e-19 0.0964628)
(9.85705 -1.08501e-19 0.119251)
(9.8928 -5.52944e-20 0.123609)
(9.77855 -5.92672e-20 0.144315)
(9.82183 -5.64808e-20 0.152416)
(9.68416 -2.67494e-20 0.171144)
(9.73586 3.47887e-19 0.182955)
(9.57368 6.09453e-20 0.200159)
(9.63482 -1.47926e-19 0.215685)
(9.44675 6.28705e-20 0.231832)
(9.51804 2.77302e-19 0.251191)
(9.30277 3.14089e-20 0.266604)
(9.38496 -2.19802e-19 0.290012)
(9.14101 0 0.304919)
(9.23502 5.24844e-19 0.332665)
(8.96056 5.79096e-19 0.347255)
(9.06753 -5.36562e-19 0.379693)
(8.76038 -3.26209e-20 0.394127)
(8.88168 8.36106e-21 0.431694)
(8.53929 -5.75061e-19 0.446078)
(8.67651 5.54522e-19 0.489306)
(8.29596 0 0.503652)
(8.45091 8.0644e-21 0.553193)
(8.02894 6.79606e-19 0.56735)
(8.20374 -5.4117e-19 0.62402)
(7.73668 -1.37246e-18 0.637622)
(7.93362 1.97483e-18 0.702392)
(7.41761 -5.06183e-19 0.714855)
(7.63911 -3.3406e-18 0.788853)
(7.07009 -4.11579e-20 0.799228)
(7.31888 1.44209e-18 0.883884)
(6.6925 1.93449e-19 0.890541)
(6.97141 3.95202e-20 0.987657)
(6.28331 1.35121e-18 0.988108)
(6.595 -3.02692e-18 1.09985)
(5.84123 -2.07978e-19 1.09058)
(6.18814 -2.55533e-19 1.21954)
(5.36536 0 1.19564)
(5.74936 -4.431e-20 1.34494)
(4.85542 -7.54603e-19 1.2997)
(5.27724 3.51384e-18 1.47296)
(4.31208 3.5632e-18 1.39745)
(4.77067 -7.41041e-19 1.59884)
(3.73696 2.41704e-19 1.48063)
(4.22899 8.68124e-18 1.71552)
(3.13236 -3.89943e-18 1.53621)
(3.651 -8.06538e-18 1.81193)
(2.49887 1.04898e-17 1.54309)
(3.03372 8.3219e-18 1.87124)
(1.82473 -9.67735e-19 1.46861)
(2.37097 1.5498e-18 1.86861)
(1.05943 -1.20132e-17 1.279)
(1.62065 -3.88536e-19 1.77731)
(0.907661 -1.19716e-17 1.56405)
(9.98962 5.8601e-20 0.0589809)
(9.98598 7.66773e-20 0.0437142)
(9.96206 -1.73007e-19 0.0919092)
(9.97398 1.31524e-19 0.0826845)
(9.91635 -2.60518e-19 0.123408)
(9.94284 -1.61675e-19 0.118034)
(9.85465 -3.29218e-21 0.155989)
(9.89033 1.64557e-19 0.153735)
(9.77769 3.57545e-19 0.190366)
(9.82081 -5.64285e-20 0.191283)
(9.68546 2.18443e-19 0.226958)
(9.73663 6.36913e-19 0.231113)
(9.57782 7.54318e-20 0.266345)
(9.63788 -4.72813e-19 0.273771)
(9.45453 -1.34949e-20 0.309157)
(9.52404 1.85719e-19 0.31994)
(9.31518 2.85687e-19 0.356005)
(9.39463 -8.17494e-19 0.370289)
(9.15924 -2.87309e-20 0.4075)
(9.24923 5.19781e-19 0.425471)
(8.98605 -1.09887e-18 0.4643)
(9.08735 -5.42603e-19 0.486167)
(8.79484 6.04089e-19 0.527114)
(8.90834 -1.48427e-20 0.553122)
(8.58475 1.12948e-18 0.596696)
(8.71152 1.1572e-18 0.627138)
(8.35482 -5.41742e-19 0.673818)
(8.49608 4.47927e-20 0.709059)
(8.10397 7.9295e-19 0.759234)
(8.26117 6.11207e-19 0.799747)
(7.83102 -7.44425e-20 0.85363)
(8.00583 4.86792e-20 0.900032)
(7.5347 -1.31979e-18 0.95763)
(7.72893 -1.34039e-18 1.01067)
(7.21367 1.50151e-18 1.07168)
(7.42943 0 1.13235)
(6.86647 -3.22538e-18 1.19582)
(7.10613 1.47993e-18 1.26553)
(6.49146 -4.59667e-18 1.3295)
(6.75752 -4.61741e-18 1.41016)
(6.08691 -8.9896e-20 1.47137)
(6.38196 -4.4583e-20 1.5655)
(5.65094 3.51474e-18 1.61893)
(5.97747 -4.43918e-19 1.72989)
(5.18151 3.47481e-18 1.76807)
(5.54166 3.09678e-18 1.90026)
(4.67639 4.48391e-18 1.91263)
(5.07144 4.44646e-19 2.07168)
(4.13261 2.10572e-19 2.04349)
(4.56297 3.96726e-18 2.23696)
(3.54505 4.27808e-18 2.14737)
(4.01046 -1.1902e-17 2.38574)
(2.90322 -6.29846e-19 2.20619)
(3.40448 1.64631e-17 2.50406)
(2.1855 2.08986e-18 2.19914)
(2.73247 -9.94157e-18 2.5746)
(1.35405 -5.4703e-19 2.11455)
(1.95084 1.09292e-17 2.58368)
(1.12096 -1.17486e-17 2.52555)
(9.98744 1.50585e-19 0.0680281)
(9.98532 -2.5411e-20 0.0492702)
(9.95938 1.37681e-19 0.109127)
(9.97225 1.82343e-19 0.095487)
(9.91439 2.69129e-19 0.149002)
(9.94099 1.60519e-19 0.139277)
(9.85375 1.07638e-19 0.189924)
(9.88943 1.09531e-19 0.183364)
(9.77825 2.34634e-19 0.233016)
(9.82145 0 0.229436)
(9.68796 -7.28827e-20 0.278952)
(9.7392 2.21265e-21 0.278288)
(9.58276 -3.51771e-19 0.328414)
(9.6428 -2.94931e-19 0.330587)
(9.46243 -6.34689e-19 0.382124)
(9.53182 -4.23067e-22 0.387088)
(9.32668 -5.61995e-19 0.4408)
(9.40584 -5.03871e-19 0.448572)
(9.17506 -1.10717e-20 0.505166)
(9.26453 -6.88755e-20 0.515803)
(9.00707 5.50084e-19 0.575996)
(9.10748 5.22608e-19 0.589574)
(8.82212 5.56789e-19 0.654127)
(8.93417 -1.09885e-18 0.670749)
(8.61957 5.48404e-20 0.740452)
(8.74409 1.13013e-18 0.760255)
(8.39871 1.20681e-18 0.835899)
(8.53662 1.16376e-18 0.859071)
(8.15879 -1.41394e-19 0.941401)
(8.31114 4.04636e-20 0.968211)
(7.89899 -1.239e-18 1.05784)
(8.06697 -1.18131e-18 1.08867)
(7.61836 0 1.18606)
(7.80328 -1.5939e-19 1.22141)
(7.31592 0 1.32675)
(7.5193 -2.66965e-18 1.36733)
(6.99047 0 1.48026)
(7.2141 2.73034e-18 1.52716)
(6.64058 0 1.64634)
(6.88645 0 1.7012)
(6.26436 -4.04963e-19 1.82397)
(6.53478 0 1.88912)
(5.8594 -8.16977e-19 2.01097)
(6.15692 -1.38137e-20 2.08971)
(5.42246 3.36264e-20 2.20357)
(5.74994 -4.12332e-19 2.3005)
(4.94898 -3.08787e-20 2.39604)
(5.30959 4.40611e-19 2.51736)
(4.43244 -8.29227e-18 2.58019)
(4.82978 -4.61804e-19 2.73425)
(3.86312 5.02139e-19 2.74499)
(4.30183 -6.86247e-18 2.94272)
(3.22616 7.01473e-18 2.87692)
(3.71319 8.13865e-18 3.13216)
(2.49852 -1.08524e-18 2.96154)
(3.04896 -5.80357e-19 3.29026)
(1.65543 -6.79656e-19 3.00004)
(2.27844 1.74393e-17 3.4031)
(1.35684 -3.78796e-17 3.51061)
(9.98636 9.78689e-21 0.0774658)
(9.98506 -2.05504e-19 0.0553011)
(9.95801 2.04856e-19 0.12621)
(9.97144 -2.07198e-19 0.108429)
(9.91386 0 0.174254)
(9.94038 0 0.160136)
(9.85459 0 0.22353)
(9.89001 0 0.212343)
(9.7809 -2.32437e-19 0.275332)
(9.82383 0 0.266703)
(9.69291 -2.24819e-19 0.330525)
(9.74383 -1.1504e-19 0.324301)
(9.59052 6.13037e-20 0.389877)
(9.65019 0 0.385939)
(9.47353 1.22385e-19 0.45419)
(9.5425 6.0334e-20 0.452443)
(9.3417 -3.62348e-21 0.524282)
(9.42039 1.8436e-19 0.524679)
(9.19468 4.74252e-19 0.600983)
(9.28362 -5.06885e-19 0.603513)
(9.03204 -1.15193e-18 0.685178)
(9.13181 1.04444e-18 0.689844)
(8.85328 -4.91552e-19 0.777814)
(8.96455 -5.57534e-19 0.784632)
(8.65793 2.24025e-18 0.879901)
(8.78142 1.12995e-18 0.888901)
(8.44544 -1.96571e-20 0.992501)
(8.58193 1.14137e-18 1.00374)
(8.21525 -1.01854e-18 1.11669)
(8.36564 -1.17262e-18 1.1303)
(7.96673 -8.58845e-20 1.25353)
(8.13199 -1.1973e-18 1.26971)
(7.69921 -2.86637e-18 1.40403)
(7.88034 2.6583e-18 1.42309)
(7.41193 1.36686e-19 1.56915)
(7.61008 -5.06817e-18 1.59155)
(7.10393 2.69369e-18 1.74955)
(7.32053 5.07618e-18 1.77609)
(6.77395 0 1.94543)
(7.01061 -5.49194e-18 1.9774)
(6.42012 3.90903e-19 2.15628)
(6.67885 3.1745e-18 2.19569)
(6.03981 3.86057e-19 2.38058)
(6.32309 6.28594e-18 2.43041)
(5.6292 4.69597e-21 2.61553)
(5.94012 -5.27709e-18 2.68001)
(5.18252 0 2.85671)
(5.52532 0 2.94175)
(4.69131 9.03485e-19 3.09775)
(5.07176 8.06575e-19 3.21139)
(4.14393 8.89207e-19 3.33028)
(4.56939 -7.9227e-19 3.48257)
(3.52486 5.056e-19 3.54457)
(4.00488 0 3.74727)
(2.81148 1.79226e-17 3.72693)
(3.36156 4.9714e-20 3.99708)
(1.99544 -2.11961e-17 3.88925)
(2.63837 1.35604e-18 4.20505)
(1.6333 -2.06035e-17 4.47919)
(9.98593 -4.22568e-19 0.0870812)
(9.98505 0 0.0615195)
(9.9576 -4.08475e-19 0.143108)
(9.97123 -2.08657e-19 0.121371)
(9.91445 0 0.198963)
(9.94069 2.10667e-19 0.180539)
(9.85683 0 0.256301)
(9.89178 -4.30782e-19 0.240534)
(9.78529 1.15515e-19 0.316491)
(9.82764 4.39501e-19 0.302917)
(9.69998 1.11746e-19 0.380572)
(9.75023 1.13637e-19 0.368961)
(9.60082 0 0.449419)
(9.65976 4.62708e-19 0.4396)
(9.48768 1.24292e-19 0.523913)
(9.55582 -9.45272e-19 0.515731)
(9.36034 -3.29919e-19 0.604964)
(9.43813 9.70398e-19 0.598298)
(9.21851 8.74499e-20 0.693503)
(9.30648 -1.43831e-18 0.688258)
(9.06182 1.61471e-18 0.790509)
(9.16055 6.14091e-20 0.786611)
(8.88988 1.09069e-18 0.89702)
(9.00001 2.13478e-18 0.894399)
(8.70229 3.04487e-20 1.01414)
(8.82451 1.09784e-18 1.01273)
(8.49863 -4.63405e-20 1.14304)
(8.63366 2.61292e-20 1.14278)
(8.27846 -1.35142e-18 1.28493)
(8.4271 -1.1946e-18 1.28583)
(8.04125 1.60271e-18 1.44102)
(8.20442 -3.71429e-18 1.44317)
(7.78646 3.48989e-19 1.61248)
(7.96507 7.6615e-18 1.61605)
(7.51348 1.21724e-20 1.80048)
(7.7085 -5.03346e-18 1.80574)
(7.22152 -3.25344e-18 2.00604)
(7.43418 5.24977e-18 2.01353)
(6.90939 -2.20798e-18 2.22987)
(7.14114 -8.12563e-18 2.24053)
(6.57529 9.11129e-18 2.47213)
(6.82804 2.49763e-18 2.48759)
(6.21649 4.90896e-19 2.73217)
(6.49274 5.90481e-18 2.75496)
(5.82906 -5.22615e-18 3.00846)
(6.13187 -5.29098e-18 3.04208)
(5.40711 8.14157e-19 3.29829)
(5.7409 0 3.34774)
(4.94174 -9.00597e-19 3.59736)
(5.31335 -6.09125e-18 3.66976)
(4.4208 -1.67503e-18 3.89944)
(4.83895 5.39335e-18 4.00382)
(3.82992 -4.54408e-19 4.19731)
(4.30489 4.00514e-19 4.34319)
(3.14665 -1.64575e-17 4.47405)
(3.69003 -2.62713e-20 4.68332)
(2.37907 1.47891e-18 4.74745)
(3.04072 -1.56272e-17 4.97271)
(1.9531 1.67122e-17 5.39952)
(9.98589 2.10622e-19 0.0966994)
(9.98512 5.07214e-20 0.0677597)
(9.95788 4.18028e-19 0.159704)
(9.97144 2.58788e-19 0.134168)
(9.91594 -2.31296e-19 0.22299)
(9.94173 3.1479e-19 0.200388)
(9.86024 2.3489e-20 0.288069)
(9.89453 -6.44733e-19 0.267814)
(9.79116 4.3226e-19 0.356341)
(9.83268 6.5806e-19 0.337928)
(9.70888 4.70378e-19 0.428974)
(9.75816 -4.45853e-19 0.412081)
(9.6134 -5.05369e-19 0.506945)
(9.67125 2.32542e-19 0.491337)
(9.50461 -6.87943e-20 0.591212)
(9.57152 -1.03419e-20 0.576674)
(9.38233 -1.75693e-19 0.682763)
(9.45878 2.51979e-19 0.669106)
(9.24632 -1.44161e-18 0.782618)
(9.33285 -9.95492e-19 0.769677)
(9.09628 6.12644e-19 0.891841)
(9.19344 -5.17979e-19 0.87947)
(8.93189 2.12664e-18 1.01155)
(9.04032 1.04515e-18 0.9996)
(8.75282 1.07829e-18 1.14293)
(8.87321 1.08187e-18 1.13125)
(8.55875 -1.14021e-18 1.28727)
(8.69181 1.25784e-20 1.2757)
(8.34931 -3.59473e-18 1.44591)
(8.49578 -1.13688e-18 1.43434)
(8.12409 2.50445e-18 1.62019)
(8.28488 -2.44081e-18 1.60858)
(7.88261 2.10627e-18 1.81146)
(8.05866 4.699e-18 1.79987)
(7.6243 3.42291e-19 2.02111)
(7.81652 -2.63802e-18 2.00964)
(7.3485 2.06061e-19 2.25048)
(7.55801 2.90751e-18 2.23943)
(7.05414 -3.28602e-18 2.50085)
(7.28222 -2.6314e-18 2.49079)
(6.73945 -6.72375e-19 2.77313)
(6.98812 -5.58207e-18 2.76526)
(6.40167 -5.77797e-21 3.06764)
(6.67367 4.982e-18 3.064)
(6.03687 -5.65798e-21 3.38409)
(6.33536 -5.82795e-18 3.3875)
(5.6397 -6.96054e-18 3.72164)
(5.96884 5.91871e-18 3.73585)
(5.20203 2.8473e-19 4.07797)
(5.56847 -6.89899e-18 4.10881)
(4.71198 7.43378e-18 4.44831)
(5.12494 -4.61502e-18 4.50424)
(4.15665 8.2486e-19 4.82691)
(4.62705 6.12681e-20 4.91557)
(3.51263 7.51159e-19 5.1917)
(4.04365 2.48586e-17 5.34279)
(2.80001 7.87158e-19 5.56006)
(3.48462 -1.23018e-17 5.70161)
(2.31251 2.88621e-20 6.26999)
(9.98606 1.02072e-19 0.106187)
(9.98522 5.07391e-20 0.0739222)
(9.95872 1.56414e-19 0.175876)
(9.97198 5.1504e-20 0.146673)
(9.91821 -1.15283e-19 0.246226)
(9.94338 1.02858e-19 0.219578)
(9.86466 1.18673e-20 0.318712)
(9.89808 -8.88565e-22 0.294073)
(9.79832 -2.38519e-19 0.394736)
(9.83878 1.03055e-21 0.371588)
(9.71942 -6.72896e-19 0.475546)
(9.76747 4.41092e-19 0.453484)
(9.62803 7.23878e-19 0.562219)
(9.68446 -9.08612e-19 0.540937)
(9.52405 3.14879e-19 0.655789)
(9.58935 7.05208e-19 0.635014)
(9.40738 -5.87512e-19 0.757323)
(9.48203 -9.53299e-19 0.736797)
(9.2778 -6.40173e-20 0.86792)
(9.36233 4.82106e-19 0.847414)
(9.13508 -6.21195e-20 0.988717)
(9.23006 -1.86536e-19 0.968018)
(8.97897 0 1.1209)
(9.08505 -1.26335e-19 1.09978)
(8.80923 0 1.26575)
(8.92707 -6.46526e-20 1.24397)
(8.62558 0 1.42463)
(8.7559 0 1.40195)
(8.42776 6.3776e-22 1.59901)
(8.57128 -8.46579e-21 1.5752)
(8.21549 -1.49072e-19 1.79041)
(8.37312 -2.16945e-18 1.76527)
(7.98829 -1.45779e-19 2.00037)
(8.16102 2.12198e-18 1.97382)
(7.74558 0 2.23048)
(7.93447 0 2.20253)
(7.48675 0 2.48242)
(7.69292 -1.4807e-19 2.45312)
(7.21094 -4.96137e-18 2.75801)
(7.43552 1.51137e-19 2.72751)
(6.91667 1.86441e-19 3.05904)
(7.16148 -4.90895e-18 3.02791)
(6.60124 -9.49312e-19 3.38681)
(6.86922 5.30896e-18 3.35657)
(6.26068 2.02986e-19 3.74217)
(6.55555 -1.10016e-17 3.71514)
(5.89002 5.8708e-18 4.12583)
(6.21596 1.08329e-17 4.10476)
(5.48257 -1.17769e-17 4.53744)
(5.84524 1.06498e-17 4.52666)
(5.02744 -1.19728e-17 4.97354)
(5.43578 -2.26817e-17 4.98111)
(4.51283 2.42194e-17 5.42909)
(4.97935 -3.38506e-19 5.46124)
(3.91247 1.184e-17 5.87683)
(4.42832 3.54197e-17 5.97324)
(3.25361 -1.26106e-17 6.32944)
(3.96839 -2.40573e-17 6.39433)
(2.70926 -4.23445e-19 7.09924)
(9.98643 0 0.115437)
(9.98532 4.01849e-19 0.0799254)
(9.95999 -1.25178e-21 0.191511)
(9.97277 4.07365e-19 0.158769)
(9.92111 2.15516e-19 0.268565)
(9.94552 -4.16788e-19 0.238016)
(9.86992 -1.17334e-20 0.348101)
(9.90229 6.34902e-19 0.319207)
(9.80661 6.88071e-19 0.431513)
(9.84579 -4.32505e-19 0.403753)
(9.73143 1.83789e-19 0.520095)
(9.778 8.87615e-19 0.493004)
(9.64446 -9.02038e-19 0.615012)
(9.69919 -4.549e-19 0.588215)
(9.54571 -5.89281e-19 0.717374)
(9.60907 2.26527e-19 0.690534)
(9.4351 1.38592e-19 0.828324)
(9.50756 8.1405e-19 0.801111)
(9.31249 3.4972e-19 0.949038)
(9.39456 4.89672e-19 0.921155)
(9.1777 -2.49937e-19 1.08071)
(9.26998 -1.09399e-18 1.05188)
(9.03056 -1.90192e-19 1.22459)
(9.13372 -8.77978e-19 1.19452)
(8.87088 -6.37756e-20 1.38205)
(8.98555 -1.36568e-19 1.3504)
(8.69848 -8.58734e-21 1.55452)
(8.82534 1.03505e-18 1.52098)
(8.51321 -2.20897e-18 1.74358)
(8.65301 -1.43876e-22 1.70778)
(8.3149 1.57211e-19 1.95095)
(8.46846 -2.1563e-18 1.91249)
(8.10315 2.243e-18 2.17839)
(8.27144 2.27324e-18 2.13705)
(7.87741 -1.49967e-19 2.42773)
(8.06174 0 2.38336)
(7.63699 6.4962e-21 2.70093)
(7.8387 -3.83623e-21 2.65342)
(7.38109 1.49629e-19 3.00026)
(7.60148 4.35639e-21 2.94946)
(7.10866 3.23098e-19 3.32838)
(7.34924 4.68026e-18 3.27417)
(6.81767 -4.90678e-18 3.68784)
(7.08094 -4.47628e-18 3.63077)
(6.5043 -1.82682e-19 4.08063)
(6.79451 -1.00487e-17 4.02245)
(6.16354 1.56112e-17 4.50849)
(6.48549 9.82508e-18 4.45154)
(5.78972 -4.77841e-19 4.973)
(6.14852 1.06663e-17 4.92019)
(5.37344 -1.09253e-17 5.47217)
(5.77706 -2.07304e-17 5.43098)
(4.90374 1.10752e-17 6.00184)
(5.36731 1.00947e-17 5.97713)
(4.34966 -3.45095e-19 6.5303)
(4.85001 1.0993e-17 6.57357)
(3.74006 -1.10148e-17 7.06288)
(4.49173 -1.14404e-17 7.05617)
(3.14385 0 7.89302)
(9.98692 8.09463e-19 0.124361)
(9.98545 5.08419e-20 0.0857098)
(9.9616 -2.26966e-20 0.206515)
(9.97377 5.17161e-20 0.170367)
(9.92453 2.07266e-20 0.289912)
(9.94804 -7.25213e-19 0.255616)
(9.8759 1.96207e-19 0.376118)
(9.90706 1.14731e-21 0.343115)
(9.81589 -2.11477e-19 0.466524)
(9.8536 2.12432e-19 0.434293)
(9.7447 2.27244e-19 0.562451)
(9.78957 2.19178e-19 0.530487)
(9.66249 6.84917e-19 0.665128)
(9.71527 -2.20006e-19 0.632994)
(9.56933 1.63967e-18 0.775737)
(9.63047 2.3103e-19 0.743026)
(9.4652 1.16078e-18 0.895492)
(9.53515 9.40348e-19 0.861807)
(9.35003 -9.78093e-19 1.02564)
(9.42926 2.41626e-19 0.990614)
(9.22374 -1.71963e-18 1.16743)
(9.31286 -1.69459e-18 1.13071)
(9.0862 -8.14297e-19 1.32217)
(9.1859 -2.22849e-20 1.2834)
(8.93728 9.78923e-19 1.49131)
(9.04816 5.32301e-20 1.45007)
(8.77689 1.0303e-18 1.67635)
(8.89964 1.03638e-18 1.63225)
(8.60497 2.53058e-20 1.87894)
(8.74044 -5.60283e-20 1.8315)
(8.42145 1.66468e-20 2.10097)
(8.57031 3.168e-22 2.04963)
(8.22622 0 2.34449)
(8.38928 0 2.28873)
(8.01887 1.46251e-19 2.61161)
(8.19748 -2.18412e-18 2.55102)
(7.79874 -5.7061e-21 2.90461)
(7.99435 2.3628e-18 2.83885)
(7.56488 4.58634e-18 3.2261)
(7.77933 4.3295e-18 3.15488)
(7.31639 -2.02558e-19 3.57932)
(7.55139 4.78184e-18 3.50209)
(7.05211 -9.67506e-18 3.96811)
(7.3096 -1.39071e-17 3.88428)
(6.76926 1.12038e-19 4.39597)
(7.05313 -3.40619e-19 4.30616)
(6.46295 4.88129e-18 4.86577)
(6.77865 3.51841e-19 4.77183)
(6.12756 -9.79969e-18 5.38069)
(6.48091 1.36787e-17 5.28458)
(5.75478 4.5325e-19 5.94043)
(6.15279 -9.8722e-18 5.84896)
(5.33419 1.00203e-17 6.54321)
(5.79583 -7.64726e-18 6.45921)
(4.82965 -1.97232e-20 7.15461)
(5.3165 1.82353e-17 7.14174)
(4.26028 0 7.7723)
(5.05725 -1.75929e-17 7.69645)
(3.62152 9.22485e-18 8.67112)
(9.98753 -7.07359e-19 0.132892)
(9.9856 9.63762e-20 0.091226)
(9.96348 -6.64701e-19 0.220806)
(9.97493 -1.04446e-19 0.181395)
(9.92839 -7.32489e-19 0.310176)
(9.95088 -3.08627e-21 0.272296)
(9.88252 2.07785e-20 0.402651)
(9.91231 -2.12816e-19 0.365705)
(9.82602 6.43442e-19 0.499635)
(9.86207 4.27716e-19 0.463096)
(9.7591 -2.352e-19 0.602455)
(9.80205 4.3553e-19 0.565796)
(9.68196 -6.67287e-19 0.712381)
(9.73253 -6.64162e-19 0.675106)
(9.59473 -4.58176e-19 0.830662)
(9.65339 -8.98299e-19 0.792294)
(9.49746 1.01583e-20 0.958578)
(9.56459 1.13605e-18 0.918664)
(9.39015 -5.02977e-19 1.09743)
(9.4662 -9.22148e-19 1.05554)
(9.27283 2.74021e-20 1.24852)
(9.35838 -1.78943e-18 1.20421)
(9.14544 8.4731e-19 1.41324)
(9.24111 8.44638e-19 1.36607)
(9.00793 1.23551e-19 1.59307)
(9.11431 3.18183e-18 1.54257)
(8.86033 -6.52563e-20 1.78958)
(8.97813 -1.85615e-18 1.73524)
(8.70262 -8.03862e-20 2.00449)
(8.8328 -1.26532e-19 1.94575)
(8.53481 -1.63672e-20 2.2398)
(8.67799 -2.07177e-18 2.17598)
(8.35694 -2.21127e-18 2.49776)
(8.51402 -1.41777e-19 2.42813)
(8.16902 8.10686e-20 2.78082)
(8.34106 -9.33544e-20 2.70459)
(7.97072 6.72475e-18 3.09168)
(8.15892 2.20609e-18 3.00808)
(7.76127 4.53432e-18 3.43338)
(7.96771 4.49126e-18 3.34177)
(7.53965 -9.09459e-18 3.80948)
(7.76659 2.20217e-19 3.70908)
(7.30507 -4.46543e-18 4.22464)
(7.55459 -9.12356e-18 4.11413)
(7.05618 -9.07705e-20 4.68406)
(7.33133 9.00035e-18 4.56252)
(6.78922 9.22174e-18 5.19247)
(7.09553 -4.61652e-18 5.06047)
(6.49849 1.3508e-17 5.75464)
(6.84307 1.13359e-18 5.61324)
(6.1758 -1.79609e-17 6.37267)
(6.5656 7.70067e-18 6.22766)
(5.81008 7.62396e-19 7.04963)
(6.2702 -1.80553e-17 6.90087)
(5.36155 6.28556e-19 7.75254)
(5.84 1.82516e-17 7.67248)
(4.82363 -6.57451e-18 8.47846)
(5.67725 -1.75849e-17 8.32598)
(4.16115 9.22933e-18 9.47157)
(9.98824 6.96025e-19 0.140977)
(9.98579 5.06128e-20 0.0964309)
(9.96558 5.59228e-19 0.234315)
(9.97623 -6.51303e-19 0.191796)
(9.93262 5.13158e-19 0.329278)
(9.95402 4.76822e-22 0.287989)
(9.88966 2.04832e-19 0.427604)
(9.91796 -2.04548e-19 0.386898)
(9.83687 2.19789e-19 0.530724)
(9.87108 0 0.490063)
(9.77446 -1.08277e-20 0.639955)
(9.81531 1.07132e-18 0.598795)
(9.7027 -8.98844e-19 0.756592)
(9.75086 -6.54225e-19 0.714383)
(9.62173 7.27029e-19 0.881949)
(9.67765 -2.29928e-19 0.838159)
(9.53165 1.73665e-19 1.01736)
(9.59565 2.04593e-18 0.971487)
(9.43255 -2.22204e-18 1.16416)
(9.5051 -2.06902e-18 1.11571)
(9.32453 -9.35817e-19 1.3237)
(9.40621 -1.06658e-18 1.27217)
(9.20767 3.21202e-18 1.49743)
(9.29897 -1.20846e-19 1.44228)
(9.08206 1.13682e-18 1.68687)
(9.18352 5.09891e-18 1.62755)
(8.94785 -1.89684e-18 1.89364)
(9.06017 -3.91645e-18 1.82952)
(8.80516 -2.14318e-18 2.11956)
(8.92914 6.14741e-20 2.04994)
(8.65407 -2.17714e-18 2.36671)
(8.79037 -2.05872e-18 2.2908)
(8.4947 1.97923e-18 2.63744)
(8.64446 -1.54729e-20 2.55438)
(8.32722 2.0589e-18 2.93435)
(8.49152 2.22526e-18 2.84315)
(8.1519 -1.2312e-20 3.2606)
(8.33155 -1.67504e-20 3.15994)
(7.96863 1.34217e-19 3.61976)
(8.16535 4.22527e-21 3.5084)
(7.7767 1.27944e-19 4.0158)
(7.99293 4.08624e-18 3.89254)
(7.5754 4.48541e-18 4.45376)
(7.81373 -4.07635e-18 4.31683)
(7.36441 4.39924e-18 4.9402)
(7.62752 4.08701e-18 4.78721)
(7.14187 -1.26945e-17 5.48204)
(7.4348 -3.4555e-20 5.31156)
(6.90313 -4.69157e-18 6.08644)
(7.23377 -8.80346e-18 5.89774)
(6.64009 7.54272e-18 6.75964)
(7.01638 4.54501e-18 6.55599)
(6.34011 -2.86604e-19 7.51264)
(6.79561 -2.58658e-19 7.28919)
(5.96304 -2.94066e-20 8.32255)
(6.43907 -4.6684e-19 8.15094)
(5.46146 0 9.20992)
(6.38315 -5.28767e-18 8.94604)
(4.81134 5.8169e-18 10.3491)
(9.98904 -1.30864e-18 0.148565)
(9.98597 -3.48166e-19 0.101286)
(9.9679 -1.19886e-18 0.246984)
(9.97765 -5.53474e-19 0.201511)
(9.93718 -7.21108e-19 0.347153)
(9.95741 -5.07768e-19 0.302639)
(9.89723 -4.06167e-19 0.450898)
(9.92397 -2.06784e-19 0.40664)
(9.84834 8.69034e-19 0.559677)
(9.8806 1.54942e-21 0.515098)
(9.79072 4.00908e-19 0.674807)
(9.82927 4.32053e-19 0.629346)
(9.72458 2.14714e-20 0.797606)
(9.77013 -4.32658e-19 0.750686)
(9.65011 1.12328e-18 0.929431)
(9.70304 -2.12858e-19 0.880479)
(9.5675 -2.56947e-19 1.07165)
(9.62807 6.79323e-19 1.02011)
(9.47695 -8.987e-19 1.22562)
(9.54564 -1.13628e-18 1.17093)
(9.37861 -2.38114e-19 1.39275)
(9.45599 2.27445e-19 1.33434)
(9.27266 1.83505e-18 1.57448)
(9.35919 1.15642e-18 1.51177)
(9.15931 -7.16127e-20 1.77238)
(9.25549 8.70061e-19 1.70473)
(9.03881 -1.90855e-18 1.98811)
(9.14534 -1.57563e-19 1.91481)
(8.91152 1.22278e-19 2.22352)
(9.02892 -1.7897e-18 2.14374)
(8.77781 1.28095e-19 2.48083)
(8.90661 -1.69898e-18 2.39353)
(8.63799 2.52599e-19 2.76249)
(8.77928 4.02474e-18 2.66663)
(8.49227 1.24706e-19 3.07111)
(8.64727 -1.95332e-18 2.96562)
(8.34115 0 3.40999)
(8.51075 0 3.29328)
(8.1854 3.99469e-18 3.7832)
(8.37071 2.42522e-19 3.65329)
(8.0252 -1.73374e-19 4.1952)
(8.22834 3.96812e-18 4.05023)
(7.86045 -4.43725e-18 4.65133)
(8.08407 -4.08853e-18 4.48896)
(7.69155 -3.7482e-19 5.15887)
(7.93841 -1.37165e-19 4.97553)
(7.51874 3.84775e-18 5.72656)
(7.79304 4.54064e-19 5.51851)
(7.34 5.01342e-19 6.36465)
(7.64943 3.83957e-18 6.12801)
(7.14956 -3.30124e-18 7.08523)
(7.5028 8.26657e-19 6.818)
(6.93522 -4.39409e-19 7.91072)
(7.37398 -4.02428e-18 7.59937)
(6.66441 -5.78251e-18 8.84351)
(7.13452 -4.36924e-19 8.53903)
(6.24615 1.6248e-18 9.99678)
(7.23487 -5.96637e-18 9.51912)
(5.66955 1.00212e-17 11.3852)
(9.98989 4.03907e-19 0.155611)
(9.98614 7.90632e-19 0.105769)
(9.97039 1.38807e-19 0.258755)
(9.97912 4.50356e-19 0.21049)
(9.94202 1.19188e-20 0.363744)
(9.96095 8.07492e-20 0.316198)
(9.90523 2.04552e-19 0.472451)
(9.93028 2.10322e-19 0.424872)
(9.86039 -4.28819e-19 0.586376)
(9.89055 3.95682e-19 0.538125)
(9.80772 -4.15359e-19 0.706874)
(9.84378 -4.30645e-19 0.657361)
(9.74738 -6.63788e-19 0.835277)
(9.79009 -4.01194e-19 0.783928)
(9.6796 -6.44351e-19 0.972943)
(9.7293 -6.68058e-19 0.919164)
(9.60468 -2.26202e-19 1.12125)
(9.66162 1.45492e-18 1.06442)
(9.52294 9.46102e-21 1.28158)
(9.58755 -1.39663e-20 1.22106)
(9.43463 1.6355e-18 1.45537)
(9.50741 -1.04449e-18 1.39054)
(9.33999 1.87241e-19 1.64411)
(9.42138 1.23481e-19 1.57431)
(9.2393 7.71205e-19 1.84935)
(9.32982 -2.0726e-18 1.7739)
(9.1329 -5.60768e-20 2.07272)
(9.23333 5.68455e-18 1.9909)
(9.02133 -3.61302e-18 2.31606)
(9.13214 -3.7263e-18 2.22693)
(8.90527 2.26132e-18 2.58166)
(9.02683 -1.7372e-18 2.48397)
(8.78542 1.7602e-18 2.87209)
(8.91849 2.40439e-18 2.76455)
(8.66231 -2.06209e-18 3.19004)
(8.80794 1.69818e-18 3.07137)
(8.53659 2.44887e-19 3.53867)
(8.69586 -3.81515e-18 3.40719)
(8.40951 2.40964e-19 3.92216)
(8.58329 5.37778e-18 3.77544)
(8.28245 0 4.34534)
(8.47219 -2.25787e-20 4.18074)
(8.1565 2.41756e-19 4.8138)
(8.36442 -3.54907e-20 4.62821)
(8.03318 6.9627e-19 5.33483)
(8.26179 6.12193e-19 5.12374)
(7.91495 4.53168e-19 5.918)
(8.1673 -3.27323e-18 5.67555)
(7.80386 4.16698e-18 6.57597)
(8.08616 7.70624e-19 6.29433)
(7.7006 1.12663e-19 7.32569)
(8.01974 3.48468e-18 6.99518)
(7.60107 -4.00328e-18 8.20035)
(7.9998 -5.35165e-18 7.7943)
(7.49984 -7.0233e-19 9.2406)
(7.93404 1.38935e-18 8.75939)
(7.31798 3.32782e-18 10.8483)
(8.38302 -4.28102e-19 9.87437)
(7.88326 4.84828e-18 12.6227)
(-0.254753 0 0.223502)
(-0.0927651 -2.44743e-18 0.228399)
(-0.87661 0 0.397262)
(-0.639306 2.05899e-18 0.529015)
(-1.68536 0 0.440251)
(-1.40624 -1.48028e-18 0.638683)
(-2.61261 0 0.446435)
(-2.29384 1.67818e-18 0.690057)
(-3.61297 -1.86828e-19 0.435981)
(-3.26922 0 0.711088)
(-4.64979 1.90135e-20 0.416519)
(-4.29672 -2.51415e-19 0.713261)
(-5.69302 3.54244e-19 0.391617)
(-5.34476 9.57575e-19 0.702478)
(-6.71874 -8.28426e-20 0.3631)
(-6.3869 -5.32511e-19 0.682087)
(-7.70907 -1.52505e-19 0.331994)
(-7.4019 -2.26029e-19 0.654146)
(-8.65105 9.30393e-20 0.298895)
(-8.37458 -9.80251e-21 0.620087)
(-9.53498 1.98026e-20 0.264068)
(-9.29427 8.8088e-20 0.580749)
(-10.3528 1.65775e-20 0.227603)
(-10.1517 9.63945e-22 0.53638)
(-11.0973 -8.50941e-21 0.189556)
(-10.939 7.97178e-20 0.487075)
(-11.7611 -2.77677e-20 0.149906)
(-11.6494 -7.76067e-20 0.432892)
(-12.3366 3.0525e-20 0.108509)
(-12.2753 -3.37664e-20 0.373596)
(-12.815 3.447e-20 0.065209)
(-12.8084 -1.21818e-19 0.308829)
(-13.1868 0 0.0198788)
(-13.24 -7.15711e-21 0.238416)
(-13.442 -2.48708e-20 -0.0277478)
(-13.5603 0 0.16231)
(-13.5705 -2.53979e-20 -0.0786024)
(-13.7591 -2.50343e-20 0.0808037)
(-13.5573 7.41864e-20 -0.135392)
(-13.8253 -1.02379e-19 -0.00891812)
(-13.3901 7.5385e-20 -0.200716)
(-13.746 -2.18887e-20 -0.104668)
(-13.0471 9.6424e-21 -0.276285)
(-13.5079 4.78779e-20 -0.212161)
(-12.5072 3.64463e-20 -0.36464)
(-13.0942 -2.91659e-20 -0.330768)
(-11.746 2.70831e-20 -0.469846)
(-12.4863 3.20725e-20 -0.461801)
(-10.7327 1.90162e-20 -0.59882)
(-11.6647 -1.16356e-20 -0.608988)
(-9.4282 1.17159e-20 -0.765023)
(-10.5982 1.56097e-20 -0.77714)
(-7.77097 -7.64354e-21 -0.997418)
(-9.2271 1.63328e-20 -0.978805)
(-5.61488 0 -1.33324)
(-7.45299 -9.07647e-22 -1.26284)
(-2.68532 0 -1.7166)
(-5.18069 0 -1.70255)
(-2.33125 1.97489e-20 -1.97156)
(-0.501557 -4.54842e-19 0.639955)
(-0.236054 -7.03823e-18 0.727199)
(-1.16778 6.90743e-19 0.879486)
(-0.796357 5.82326e-18 1.1076)
(-1.98539 1.1748e-19 0.988363)
(-1.57424 -1.67802e-18 1.29035)
(-2.91635 1.71018e-18 1.04165)
(-2.45307 1.50887e-18 1.38628)
(-3.92142 -6.21873e-20 1.06101)
(-3.41487 1.36832e-19 1.42796)
(-4.96486 6.77264e-19 1.05785)
(-4.4266 -6.2981e-20 1.43317)
(-6.01618 7.38763e-20 1.03862)
(-5.45822 9.12626e-20 1.4124)
(-7.05088 -6.78059e-19 1.00724)
(-6.48402 -5.93914e-20 1.37212)
(-8.05076 -8.26297e-20 0.966252)
(-7.48362 0 1.31649)
(-9.00263 -1.22803e-20 0.917216)
(-8.44274 -2.04615e-19 1.24843)
(-9.89645 6.88869e-20 0.860831)
(-9.35105 1.86133e-19 1.1696)
(-10.724 6.38399e-20 0.797282)