/*--------------------------------*- C++ -*----------------------------------*\
| =========                 |                                                 |
| \\      /  F ield         | OpenFOAM: The Open Source CFD Toolbox           |
|  \\    /   O peration     | Version:  4.1                                   |
|   \\  /    A nd           | Web:      www.OpenFOAM.org                      |
|    \\/     M anipulation  |                                                 |
\*---------------------------------------------------------------------------*/
FoamFile
{
    version     2.0;
    format      ascii;
    class       volScalarField;
    location    "3.8";
    object      p;
}
// * * * * * * * * * * * * * * * * * * * * * * * * * * * * * * * * * * * * * //

dimensions      [0 2 -2 0 0 0 0];

internalField   nonuniform List<scalar> 
2790
(
145.512
145.381
145.612
146.15
146.898
147.819
148.912
150.176
151.605
153.194
154.935
156.822
158.846
160.995
163.254
165.604
168.018
170.466
172.909
175.302
177.59
179.716
181.621
183.247
184.547
185.492
186.088
186.285
186.302
186.474
145.317
145.295
145.549
146.085
146.828
147.747
148.835
150.093
151.515
153.095
154.828
156.705
158.719
160.857
163.105
165.445
167.851
170.294
172.735
175.13
177.427
179.569
181.496
183.149
184.478
185.442
186.019
186.192
186.3
186.572
145.128
145.176
145.448
145.973
146.704
147.61
148.684
149.924
151.325
152.882
154.587
156.435
158.414
160.516
162.724
165.022
167.385
169.786
172.188
174.551
176.826
178.961
180.898
182.584
183.971
185.024
185.744
186.187
186.554
186.977
144.916
144.995
145.28
145.796
146.512
147.402
148.457
149.674
151.048
152.572
154.241
156.045
157.978
160.027
162.178
164.413
166.711
169.045
171.383
173.688
175.917
178.024
179.959
181.678
183.143
184.334
185.269
186.003
186.605
187.199
144.672
144.766
145.059
145.567
146.267
147.136
148.167
149.353
150.691
152.174
153.795
155.546
157.418
159.4
161.478
163.634
165.849
168.097
170.351
172.577
174.74
176.801
178.722
180.468
182.012
183.345
184.478
185.439
186.218
186.917
144.393
144.492
144.787
145.285
145.965
146.809
147.809
148.959
150.254
151.688
153.252
154.939
156.74
158.642
160.633
162.696
164.811
166.957
169.108
171.236
173.313
175.307
177.191
178.941
180.538
181.977
183.255
184.374
185.264
186.003
144.075
144.175
144.466
144.952
145.609
146.424
147.389
148.496
149.742
151.118
152.617
154.23
155.949
157.76
159.651
161.606
163.607
165.634
167.664
169.674
171.64
173.541
175.356
177.07
178.673
180.16
181.518
182.73
183.684
184.44
143.719
143.816
144.1
144.569
145.202
145.983
146.907
147.967
149.156
150.468
151.893
153.424
155.05
156.759
158.538
160.372
162.243
164.133
166.022
167.891
169.719
171.491
173.195
174.821
176.367
177.829
179.195
180.439
181.429
182.221
143.324
143.417
143.691
144.14
144.744
145.489
146.368
147.375
148.502
149.742
151.087
152.527
154.051
155.647
157.302
159.001
160.726
162.461
164.187
165.887
167.543
169.145
170.683
172.155
173.564
174.912
176.196
177.402
178.398
179.265
142.893
142.979
143.239
143.667
144.24
144.944
145.774
146.723
147.783
148.946
150.203
151.544
152.957
154.43
155.95
157.5
159.064
160.625
162.163
163.663
165.109
166.49
167.798
169.033
170.203
171.321
172.399
173.456
174.389
175.357
142.426
142.505
142.749
143.152
143.691
144.352
145.13
146.016
147.004
148.084
149.247
150.481
151.776
153.117
154.49
155.879
157.266
158.633
159.959
161.228
162.421
163.523
164.525
165.424
166.228
166.956
167.644
168.36
169.062
170.086
141.925
141.995
142.222
142.598
143.1
143.716
144.437
145.258
146.17
147.162
148.225
149.347
150.516
151.717
152.934
154.149
155.344
156.498
157.589
158.594
159.489
160.254
160.868
161.317
161.596
161.72
161.735
161.768
161.883
162.751
141.391
141.453
141.66
142.008
142.471
143.038
143.702
144.454
145.285
146.186
147.144
148.149
149.186
150.239
151.292
152.324
153.314
154.239
155.072
155.783
156.341
156.711
156.854
156.732
156.306
155.552
154.483
153.242
152.012
152.109
140.828
140.88
141.067
141.384
141.807
142.324
142.926
143.607
144.355
145.161
146.012
146.895
147.795
148.695
149.577
150.418
151.194
151.876
152.433
152.828
153.015
152.942
152.544
151.74
150.429
148.492
145.796
142.318
138.129
135.517
140.236
140.278
140.444
140.729
141.111
141.575
142.115
142.722
143.385
144.094
144.834
145.593
146.353
147.097
147.803
148.447
149.002
149.434
149.705
149.767
149.564
149.019
148.036
146.478
144.155
140.779
135.904
128.878
118.447
105.701
2.87953
2.85697
2.77565
2.64689
2.49157
2.32754
2.16599
2.01313
1.87231
1.7449
1.63068
1.52836
1.43635
1.35116
1.26926
1.18784
1.10515
1.02009
0.932006
0.84117
0.748966
0.657403
0.568318
0.48277
0.401953
0.325924
0.253952
0.185018
0.116611
0.0455928
2.8529
2.81937
2.73031
2.6009
2.45041
2.29301
2.13779
1.99035
1.85401
1.73024
1.61918
1.52026
1.43145
1.34838
1.26795
1.18741
1.10533
1.02062
0.932457
0.841159
0.748355
0.656338
0.567104
0.482097
0.401476
0.325365
0.253209
0.184433
0.116142
0.0433655
2.80828
2.76368
2.6673
2.53875
2.39504
2.24628
2.09932
1.95915
1.82913
1.71065
1.60365
1.50746
1.42228
1.34277
1.26527
1.1868
1.1064
1.02274
0.934432
0.841882
0.747486
0.654358
0.56481
0.479662
0.398845
0.322231
0.250499
0.18283
0.11599
0.0422565
2.74104
2.69341
2.59496
2.47103
2.33622
2.19713
2.05917
1.92697
1.80396
1.69149
1.58965
1.49747
1.41431
1.33852
1.26319
1.18633
1.10756
1.0249
0.936485
0.842581
0.746083
0.650926
0.559771
0.473377
0.391638
0.314499
0.24225
0.174819
0.111335
0.0402164
2.65903
2.6237
2.53171
2.4169
2.29224
2.1624
2.03243
1.90713
1.79016
1.68215
1.58342
1.49316
1.41553
1.34297
1.26852
1.19173
1.11226
1.02773
0.936273
0.839045
0.739754
0.642257
0.549093
0.461058
0.37844
0.30127
0.229735
0.164623
0.103419
0.0354431
2.58799
2.57824
2.49935
2.39493
2.27883
2.15567
2.03124
1.91057
1.79766
1.69291
1.60175
1.51251
1.42912
1.3552
1.28144
1.204
1.12206
1.03343
0.937097
0.83495
0.731024
0.629271
0.532385
0.441577
0.357488
0.280343
0.210353
0.147278
0.0881778
0.0278728
2.57433
2.58276
2.51657
2.41696
2.30286
2.18094
2.05812
1.93947
1.8283
1.72575
1.63341
1.54703
1.46578
1.38627
1.30739
1.22534
1.13757
1.04198
0.938301
0.828967
0.7182
0.610215
0.508117
0.413737
0.328144
0.251675
0.183974
0.123733
0.0678245
0.0194447
2.66134
2.65674
2.58856
2.48149
2.35944
2.23172
2.1055
1.9854
1.87389
1.77172
1.67858
1.59087
1.50736
1.42565
1.34236
1.2541
1.15834
1.05351
0.940078
0.821031
0.700951
0.584571
0.475694
0.376896
0.289702
0.214431
0.149841
0.0933357
0.0440761
0.0105063
2.8495
2.80041
2.70391
2.5742
2.43453
2.29479
2.16124
2.03749
1.925
1.8233
1.73036
1.64276
1.55812
1.47397
1.386
1.2906
1.18525
1.06901
0.943157
0.811424
0.679118
0.551824
0.434317
0.330084
0.241182
0.167752
0.107374
0.0563333
0.0163611
0.000473411
3.09286
2.97724
2.83506
2.67231
2.50949
2.35527
2.21403
2.08745
1.97538
1.87576
1.78487
1.69956
1.6164
1.53103
1.4388
1.33577
1.21945
1.08946
0.948057
0.800075
0.652037
0.510835
0.382557
0.271806
0.181222
0.110558
0.0558689
0.0123302
-0.0156057
-0.0106995
3.32305
3.13632
2.94354
2.75039
2.56685
2.40065
2.2543
2.12769
2.01896
1.92479
1.8407
1.76143
1.6821
1.5974
1.50194
1.39118
1.26249
1.11607
0.955352
0.786793
0.618764
0.460051
0.318495
0.200079
0.108083
0.0416553
-0.00506296
-0.0382686
-0.0511348
-0.0228426
3.50602
3.26186
3.02616
2.7961
2.5927
2.41925
2.27341
2.15221
2.05267
1.96992
1.89735
1.82805
1.75581
1.67438
1.57729
1.45895
1.3163
1.15011
0.965364
0.770814
0.577524
0.396941
0.239209
0.112016
0.0193393
-0.0405806
-0.0760841
-0.0953182
-0.0897464
-0.0358318
3.64713
3.30512
3.01909
2.76947
2.56259
2.39593
2.26163
2.1541
2.07135
2.0079
1.95385
1.89977
1.83872
1.76389
1.66738
1.54186
1.38339
1.19329
0.978603
0.751357
0.526427
0.318872
0.141761
0.00480624
-0.0872924
-0.13756
-0.15759
-0.158488
-0.131015
-0.0495362
3.57111
3.09919
2.83255
2.62326
2.44636
2.31284
2.20982
2.12707
2.07036
2.03684
2.01065
1.9779
1.93252
1.86826
1.77533
1.64342
1.46689
1.24765
0.9956
0.727315
0.463014
0.222551
0.0225573
-0.124946
-0.214513
-0.250825
-0.249786
-0.227099
-0.17426
-0.0637345
3.01646
2.41995
2.35228
2.32914
2.22465
2.16555
2.12304
2.07045
2.04459
2.05504
2.07024
2.06502
2.03937
1.99025
1.90501
1.76803
1.5707
1.31577
1.017
0.697333
0.384356
0.104191
-0.122433
-0.281041
-0.365393
-0.382167
-0.352888
-0.300317
-0.218751
-0.0780619
139.607
139.639
139.782
140.034
140.372
140.783
141.257
141.788
142.363
142.97
143.597
144.227
144.843
145.425
145.951
146.393
146.72
146.894
146.871
146.593
145.988
144.961
143.379
141.054
137.694
132.82
125.55
114.064
92.7186
35.2118
138.933
138.954
139.074
139.29
139.583
139.937
140.344
140.795
141.278
141.781
142.29
142.787
143.255
143.671
144.012
144.246
144.341
144.254
143.934
143.316
142.315
140.822
138.679
135.663
131.427
125.412
116.633
103.433
84.5715
57.1799
138.22
138.228
138.324
138.504
138.749
139.045
139.382
139.751
140.141
140.537
140.925
141.287
141.605
141.853
142.007
142.035
141.899
141.555
140.947
140.003
138.636
136.725
134.112
130.572
125.793
119.338
110.643
99.0982
85.2664
69.1822
137.467
137.464
137.534
137.678
137.874
138.109
138.375
138.662
138.956
139.244
139.51
139.737
139.904
139.986
139.956
139.78
139.421
138.831
137.952
136.712
135.022
132.768
129.8
125.93
120.919
114.487
106.352
96.1958
83.9689
69.2516
136.677
136.662
136.707
136.812
136.959
137.134
137.328
137.53
137.728
137.908
138.053
138.146
138.164
138.082
137.873
137.503
136.932
136.113
134.99
133.491
131.534
129.015
125.808
121.763
116.705
110.446
102.794
93.5175
82.4569
69.8193
135.853
135.825
135.844
135.91
136.007
136.121
136.243
136.361
136.464
136.537
136.562
136.523
136.396
136.157
135.778
135.224
134.458
133.433
132.096
130.381
128.214
125.506
122.156
118.049
113.06
107.06
99.9354
91.5902
82.0173
71.6224
134.995
134.955
134.948
134.976
135.022
135.076
135.125
135.161
135.169
135.137
135.046
134.879
134.613
134.225
133.686
132.964
132.022
130.816
129.298
127.41
125.089
122.261
118.848
114.766
109.933
104.272
97.7353
90.3122
82.0458
73.2657
134.107
134.055
134.022
134.011
134.009
134.002
133.98
133.934
133.851
133.717
133.514
133.225
132.828
132.3
131.615
130.741
129.643
128.284
126.62
124.601
122.175
119.285
115.874
111.883
107.263
101.977
96.0125
89.3912
82.1616
74.5913
133.192
133.129
133.069
133.021
132.97
132.904
132.814
132.689
132.517
132.284
131.975
131.571
131.052
130.397
129.579
128.57
127.341
125.855
124.077
121.965
119.479
116.575
113.213
109.357
104.98
100.068
94.6306
88.7003
82.33
75.7437
132.254
132.179
132.095
132.01
131.911
131.788
131.631
131.43
131.174
130.848
130.439
129.928
129.298
128.526
127.591
126.468
125.127
123.542
121.68
119.509
116.999
114.118
110.84
107.145
103.021
98.4701
93.511
88.1826
82.5372
76.7566
131.297
131.211
131.103
130.982
130.838
130.659
130.439
130.165
129.829
129.417
128.914
128.306
127.575
126.701
125.664
124.443
123.014
121.353
119.434
117.234
114.729
111.899
108.728
105.207
101.335
97.1229
92.5943
87.7883
82.7519
77.6312
130.326
130.229
130.098
129.943
129.755
129.524
129.243
128.902
128.491
127.998
127.411
126.714
125.893
124.93
123.808
122.507
121.008
119.293
117.341
115.134
112.657
109.898
106.848
103.505
99.8772
95.9779
91.8328
87.4778
82.9542
78.3794
129.345
129.238
129.085
128.897
128.668
128.389
128.051
127.647
127.167
126.601
125.937
125.162
124.262
123.223
122.029
120.665
119.115
117.364
115.398
113.204
110.773
108.097
105.174
102.009
98.6106
94.9962
91.1903
87.2249
83.1352
79.0161
128.359
128.244
128.07
127.852
127.584
127.259
126.868
126.406
125.864
125.232
124.499
123.655
122.688
121.585
120.334
118.922
117.337
115.567
113.603
111.436
109.061
106.476
103.683
100.689
97.5041
94.1471
90.6402
87.0114
83.2907
79.5546
127.376
127.251
127.058
126.813
126.509
126.141
125.703
125.188
124.589
123.898
123.106
122.203
121.179
120.024
118.728
117.281
115.674
113.899
111.949
109.82
107.51
105.02
102.354
99.5204
96.5324
93.4063
90.1625
86.8251
83.4191
80.007
126.399
126.267
126.057
125.785
125.449
125.043
124.561
123.999
123.35
122.607
121.763
120.81
119.739
118.543
117.214
115.744
114.126
112.357
110.431
108.347
106.105
103.71
101.166
98.4837
95.6749
92.755
89.7422
86.6572
83.5208
80.3842
125.437
125.298
125.072
124.777
124.411
123.97
123.45
122.845
122.152
121.365
120.477
119.482
118.374
117.147
115.794
114.31
112.692
110.935
109.04
107.006
104.835
102.532
100.105
97.5617
94.9149
92.1785
89.3684
86.5022
83.5976
80.6963
124.495
124.35
124.11
123.794
123.401
122.93
122.375
121.734
121.003
120.178
119.253
118.225
117.087
115.837
114.468
112.979
111.367
109.631
107.771
105.789
103.689
101.475
99.1557
96.74
94.239
91.6654
89.0329
86.3568
83.6516
80.9521
123.581
123.431
123.178
122.843
122.427
121.928
121.344
120.671
119.908
119.051
118.097
117.041
115.882
114.615
113.239
111.751
110.151
108.44
106.618
104.688
102.656
100.526
98.3071
96.0072
93.6367
91.2069
88.73
86.2187
83.6857
81.1595
122.701
122.546
122.283
121.931
121.495
120.973
120.362
119.663
118.873
117.99
117.012
115.936
114.761
113.484
112.105
110.624
109.04
107.356
105.573
103.695
101.728
99.677
97.5496
95.354
93.0997
90.7967
88.4556
86.0874
83.7029
81.3258
121.863
121.705
121.432
121.066
120.612
120.069
119.437
118.716
117.903
116.999
116.002
114.912
113.726
112.445
111.068
109.597
108.032
106.376
104.632
102.804
100.898
98.9194
96.875
94.7729
92.6215
90.4297
88.207
85.9627
83.7062
81.4572
121.075
120.913
120.632
120.254
119.785
119.225
118.575
117.835
117.005
116.084
115.073
113.972
112.78
111.498
110.127
108.668
107.124
105.497
103.791
102.01
100.16
98.2472
96.2775
94.2583
92.1974
90.1028
87.9828
85.8455
83.6991
81.56
120.344
120.18
119.892
119.503
119.021
118.447
117.782
117.027
116.182
115.249
114.228
113.12
111.925
110.645
109.282
107.837
106.314
104.715
103.045
101.308
99.5094
97.6553
95.7518
93.8056
91.8237
89.8134
87.7819
85.7365
83.6842
81.639
119.678
119.512
119.218
118.82
118.328
117.742
117.064
116.297
115.442
114.499
113.471
112.359
111.164
109.889
108.534
107.104
105.601
104.029
102.392
100.695
98.9425
97.1406
95.2952
93.4125
91.4988
89.5608
87.605
85.6379
83.6657
81.7001
119.086
118.918
118.619
118.213
117.711
117.115
116.428
115.652
114.788
113.839
112.806
111.692
110.499
109.229
107.884
106.468
104.985
103.437
101.83
100.168
98.456
96.6995
94.9041
93.0757
91.2201
89.3433
87.4513
85.5499
83.6447
81.7454
118.578
118.407
118.102
117.689
117.179
116.576
115.881
115.098
114.228
113.274
112.239
111.125
109.935
108.67
107.335
105.933
104.467
102.941
101.36
99.7286
98.0512
96.3332
94.58
92.797
90.9899
89.1641
87.325
85.478
83.6282
81.784
118.162
117.988
117.676
117.255
116.738
116.128
115.427
114.638
113.764
112.807
111.771
110.658
109.471
108.212
106.886
105.496
104.045
102.538
100.979
99.3723
97.7232
96.0367
94.3177
92.5715
90.8032
89.018
87.221
85.4171
83.6109
81.8093
117.851
117.671
117.35
116.922
116.4
115.786
115.08
114.287
113.41
112.451
111.415
110.303
109.118
107.865
106.547
105.166
103.728
102.236
100.694
99.1079
97.4814
95.8196
94.1274
92.4098
90.6718
88.9182
87.1539
85.3835
83.6117
81.8442
117.659
117.455
117.117
116.684
116.159
115.542
114.834
114.039
113.16
112.201
111.165
110.055
108.873
107.624
106.312
104.938
103.509
102.027
100.498
98.9254
97.3141
95.6689
93.9946
92.296
90.578
88.8451
87.1021
85.3533
83.603
81.856
117.643
117.376
117.011
116.572
116.044
115.424
114.713
113.915
113.036
112.077
111.041
109.932
108.753
107.508
106.2
104.832
103.409
101.935
100.414
98.8503
97.2491
95.6148
93.952
92.2656
90.5601
88.8402
87.1103
85.3748
83.6379
81.9036
-46.3024
-26.0738
-7.61493
37.4991
30.2321
18.2326
52.1925
40.4031
29.3997
53.3977
43.2436
35.3915
57.5766
49.493
42.8965
61.8264
55.0811
49.3278
64.9981
59.2533
54.3226
67.5172
62.6079
58.3992
69.642
65.4079
61.7844
71.4338
67.7391
64.5848
72.9377
69.6796
66.9047
74.2018
71.3014
68.8358
75.2657
72.661
70.4499
76.161
73.8032
71.8036
76.9139
74.7641
72.942
77.5462
75.573
73.9009
78.0759
76.2536
74.7092
78.5184
76.8256
75.3903
78.8865
77.3052
75.9634
79.1912
77.7062
76.4448
79.4421
78.0401
76.8477
79.6476
78.3172
77.184
79.8145
78.5454
77.4628
79.9507
78.7338
77.694
80.0586
78.8856
77.8817
80.1498
79.0131
78.0383
80.2155
79.1079
78.1571
80.2842
79.1987
78.2646
80.3158
79.2461
78.3258
80.384
79.3282
78.4142
-0.316177
-0.238474
1.08454
2.05575
1.98001
1.97845
2.00299
1.96907
1.97769
2.06419
2.14553
2.1699
2.16446
2.13517
2.0637
1.92391
1.70208
1.40246
1.04428
0.659173
0.285186
-0.0432411
-0.300963
-0.471149
-0.546623
-0.536283
-0.468875
-0.377835
-0.263652
-0.0921885
4.68907
1.82944
3.22402
2.5992
1.19006
1.26927
1.83546
1.92927
1.94386
2.11143
2.25591
2.293
2.30551
2.30686
2.26293
2.12537
1.87319
1.5157
1.08003
0.60974
0.157927
-0.229463
-0.523281
-0.705239
-0.766865
-0.719172
-0.599854
-0.458076
-0.306579
-0.10523
15.4393
7.23211
4.42452
1.99214
1.4892
2.54003
2.81704
1.79929
1.39308
1.7593
2.32487
2.4677
2.48579
2.52197
2.51748
2.3829
2.08853
1.65623
1.12185
0.54277
-0.00667268
-0.463708
-0.79721
-0.990383
-1.0322
-0.934686
-0.745811
-0.536455
-0.341845
-0.115294
24.8689
15.1748
9.38561
5.61829
3.78506
3.09914
2.09826
1.5146
1.71566
2.80828
3.20646
2.66703
2.54285
2.6729
2.80271
2.71523
2.37121
1.84596
1.18703
0.465174
-0.212994
-0.754217
-1.13003
-1.3345
-1.35033
-1.18779
-0.906757
-0.606251
-0.359079
-0.119262
33.757
24.1772
16.9775
11.7436
8.13151
5.69012
3.93032
2.98805
2.71721
2.91179
2.82537
2.83608
3.02636
3.31036
3.45846
3.22979
2.70266
2.04386
1.22802
0.321278
-0.515266
-1.13406
-1.53522
-1.74672
-1.72909
-1.48358
-1.08411
-0.662634
-0.343982
-0.111865
41.5092
32.7627
25.0241
18.7088
13.8766
10.3177
7.74662
5.98273
4.85775
4.20768
3.79878
3.63613
3.6048
3.65767
3.66632
3.44925
2.97888
2.26556
1.29845
0.203226
-0.787822
-1.49942
-1.96626
-2.21385
-2.17435
-1.83084
-1.27998
-0.699934
-0.270301
-0.0836731
47.843
40.2044
32.5911
25.8488
20.3546
16.0195
12.6349
10.0437
8.13826
6.8039
5.8781
5.22584
4.76325
4.43756
4.13843
3.72141
3.1148
2.29083
1.24552
0.0779976
-1.01349
-1.8595
-2.4173
-2.66362
-2.55716
-2.08943
-1.38279
-0.660886
-0.119145
-0.0283053
53.003
46.4213
39.3255
32.6554
26.9235
22.1272
18.1467
14.9001
12.3232
10.3266
8.78199
7.57205
6.61808
5.84487
5.14723
4.4079
3.54902
2.53848
1.3835
0.164071
-0.967973
-1.86451
-2.44954
-2.69151
-2.57085
-2.10124
-1.4016
-0.673688
-0.119126
-0.117762
57.2095
51.5239
45.0918
38.7765
33.1137
28.1574
23.8501
20.1601
17.0588
14.4911
12.3742
10.6231
9.16152
7.91072
6.78021
5.67703
4.53181
3.31278
2.02911
0.745048
-0.424253
-1.35913
-1.98468
-2.26871
-2.20109
-1.8121
-1.21577
-0.60075
-0.184706
-0.355165
60.6383
55.684
49.9191
44.0819
38.6757
33.7795
29.3677
25.4376
21.9895
19.0012
16.4262
14.2062
12.279
10.5783
9.03251
7.5702
6.13523
4.69955
3.27005
1.89486
0.658012
-0.349217
-1.06148
-1.44753
-1.50565
-1.27739
-0.870799
-0.456931
-0.241647
-0.548233
63.4497
59.0873
53.9284
48.5928
43.5304
38.8243
34.4633
30.4587
26.8288
23.5737
20.6725
18.0896
15.7819
13.7006
11.7929
10.0065
8.29899
6.64823
5.05859
3.56436
2.22506
1.10773
0.264653
-0.278554
-0.52692
-0.525218
-0.369808
-0.206055
-0.205202
-0.614791
65.7738
61.8926
57.2595
52.3965
47.6995
43.246
39.0294
35.0658
31.3815
27.9896
24.8856
22.0522
19.4634
17.0871
14.8874
12.8283
10.8803
9.02743
7.27269
5.63987
4.17022
2.91129
1.90184
1.16034
0.67841
0.414341
0.287271
0.180778
-0.036163
-0.546098
67.708
64.2225
60.037
55.5977
51.2527
47.0707
43.0456
39.1928
35.5407
32.1087
28.9026
25.9172
23.1399
20.5522
18.1322
15.8571
13.708
11.6749
9.76022
7.98045
6.36383
4.94316
3.74564
2.78357
2.04778
1.5027
1.0839
0.702548
0.263733
-0.362852
69.3264
66.1696
62.3639
58.296
54.274
50.3583
46.541
42.8351
39.2677
35.8607
32.6253
29.5644
26.6743
23.9469
21.3706
18.9328
16.6229
14.4356
12.3736
10.4487
8.68022
7.09033
5.69753
4.5095
3.51763
2.6934
1.98758
1.33487
0.668876
-0.0997395
70.6858
67.8047
64.3219
60.5766
56.8443
53.1777
49.5671
46.0222
42.5676
39.2254
36.0094
32.927
29.9807
27.1692
24.4885
21.9332
19.4988
17.1837
14.9912
12.9302
11.014
9.25767
7.67357
6.26618
5.02806
3.93727
2.95729
2.04123
1.14325
0.205231
71.8309
69.1825
65.9753
62.5097
59.034
55.5948
52.1806
48.7979
45.4683
42.2129
39.0464
35.9786
33.0155
30.1605
27.4147
24.7776
22.2491
19.8303
17.5252
15.3408
13.2867
11.3735
9.60907
7.99604
6.52825
5.18913
3.95198
2.78325
1.65076
0.5192
72.7968
70.346
67.3746
64.1515
60.902
57.6676
54.4353
51.2088
48.0069
44.8487
41.7488
38.7181
35.7646
32.8946
30.1123
27.4206
24.8223
22.3205
19.9197
17.6261
15.4469
13.3894
11.4593
9.65761
7.97949
6.41239
4.93661
3.52763
2.16164
0.818944
73.612
71.3293
68.5606
65.5477
62.4968
59.4451
56.3788
53.299
50.2214
47.1635
44.139
41.1587
38.2319
35.3662
32.5678
29.8418
27.1928
24.6253
22.1442
19.7553
17.4643
15.2768
13.1966
11.2241
9.35537
7.58063
5.88491
4.2494
2.65487
1.09157
74.2995
72.1602
69.5658
66.7353
63.8583
60.9689
58.0523
55.1076
52.1479
49.1887
46.2425
43.3199
40.4302
37.5816
34.7815
32.0361
29.3514
26.7325
24.1848
21.7137
19.3243
17.0208
14.8061
12.6802
10.6398
8.67682
6.77939
4.93206
3.1178
1.33257
74.8784
72.8615
70.4171
67.7447
65.0198
62.2735
59.4908
56.6688
53.8187
50.9537
48.0852
45.2231
42.3762
39.5529
36.7611
34.0075
31.2986
28.6402
26.0379
23.4968
21.0215
18.6156
16.2813
14.0185
11.824
9.69119
7.60972
5.5661
3.54419
1.54279
75.3646
73.4522
71.1367
68.6011
66.0085
63.3879
60.7239
58.0124
55.2623
52.4852
49.6913
46.8894
44.0878
41.2947
38.5176
35.7639
33.0399
30.3519
27.7052
25.1051
22.5557
20.0602
17.6205
15.2361
12.9042
10.6187
8.37036
6.14663
3.93164
1.72533
75.7718
73.9482
71.7433
69.3257
66.8477
64.3367
61.7771
59.1638
56.5038
53.8073
51.0831
48.3391
45.5828
42.822
40.0639
37.3155
34.5834
31.8736
29.1916
26.5422
23.9296
21.3565
18.8245
16.333
13.8792
11.4575
9.05915
6.67199
4.28025
1.88394
76.1108
74.3625
72.2519
69.9354
67.5562
65.1399
62.6714
60.1443
57.5644
54.9404
52.2799
49.5899
46.8773
44.1489
41.4117
38.6724
35.9372
33.212
30.5022
27.8123
25.1462
22.5066
19.8946
17.3096
14.7488
12.2067
9.67471
7.14109
4.59003
2.02096
76.3924
74.7074
72.6767
70.4461
68.1511
65.816
63.4258
60.9735
58.4636
55.9036
53.3002
50.6594
47.9872
45.2901
42.5743
39.846
37.1113
34.3757
31.6443
28.9215
26.2108
23.5148
20.8343
18.1686
15.5149
12.8676
10.2184
7.55544
4.86307
2.13943
76.6225
74.9901
73.0262
70.8677
68.6435
66.3768
64.053
61.6644
59.2146
56.7099
54.1563
51.559
48.9233
46.2548
43.5595
40.843
38.111
35.3686
32.6208
29.8715
27.1242
24.3811
21.6429
18.9087
16.1756
13.438
10.6875
7.91242
5.09718
2.23846
76.8129
75.2231
73.3141
71.215
69.049
66.8389
64.5701
62.2346
59.8351
57.3771
54.8657
52.3057
49.7016
47.0585
44.3819
41.6768
38.9486
36.2022
33.442
30.672
27.8952
25.1135
22.3277
19.5366
16.7371
13.9237
11.0878
8.2178
5.29809
2.32298
76.9599
75.4038
73.5383
71.4864
69.3668
67.2017
64.9768
62.6839
60.3248
57.9045
55.4276
52.898
50.32
47.6982
45.0374
42.3425
39.6184
36.8696
34.1003
31.3143
28.5143
25.7022
22.8784
20.0416
17.1885
14.3136
11.4083
8.46079
5.45578
2.3858
77.0857
75.5545
73.7221
71.7059
69.6214
67.4904
65.299
63.0385
60.7102
58.3188
55.8683
53.3623
50.8045
48.1993
45.551
42.8643
40.1437
37.3935
34.6177
31.8198
29.0024
26.1672
23.3143
20.4425
17.5483
14.6259
11.6667
8.65882
5.58666
2.4394
77.1631
75.6475
73.8367
71.8449
69.7841
67.676
65.5068
63.268
60.9606
58.5885
56.1558
53.6657
51.1217
48.5277
45.888
43.207
40.489
37.738
34.958
32.1523
29.3233
26.4725
23.6001
20.7047
17.7826
14.8278
11.8316
8.78176
5.66272
2.46251
77.2506
75.7359
73.9371
71.96
69.9126
67.8168
65.6595
63.4322
61.1356
58.7735
56.3498
53.8675
51.33
48.7412
46.1052
43.4262
40.7084
37.9559
35.1725
32.3613
29.525
26.6648
23.7809
20.8718
17.9337
14.9607
11.9435
8.86892
5.71897
2.47045
)
;

boundaryField
{
    inlet
    {
        type            zeroGradient;
    }
    outlet
    {
        type            fixedValue;
        value           uniform 0;
    }
    flap
    {
        type            zeroGradient;
    }
    upperWall
    {
        type            zeroGradient;
    }
    lowerWall
    {
        type            zeroGradient;
    }
    frontAndBack
    {
        type            empty;
    }
}


// ************************************************************************* //
