/*--------------------------------*- C++ -*----------------------------------*\
| =========                 |                                                 |
| \\      /  F ield         | OpenFOAM: The Open Source CFD Toolbox           |
|  \\    /   O peration     | Version:  4.1                                   |
|   \\  /    A nd           | Web:      www.OpenFOAM.org                      |
|    \\/     M anipulation  |                                                 |
\*---------------------------------------------------------------------------*/
FoamFile
{
    version     2.0;
    format      ascii;
    class       surfaceVectorField;
    location    "3.8";
    object      Uf;
}
// * * * * * * * * * * * * * * * * * * * * * * * * * * * * * * * * * * * * * //

dimensions      [0 1 -1 0 0 0 0];

internalField   nonuniform List<vector> 
5457
(
(9.9183 2.49126e-23 0.0249228)
(9.96955 -6.43413e-21 0.038608)
(9.81976 4.69337e-21 0.0323611)
(9.92695 -1.5046e-21 0.0478073)
(9.7043 4.0811e-21 0.0386257)
(9.85366 3.90824e-23 0.0575664)
(9.56954 -4.42843e-21 0.0451346)
(9.7548 -2.47693e-23 0.0690309)
(9.41543 2.18174e-22 0.0518886)
(9.63575 2.1352e-20 0.0811011)
(9.24213 3.23794e-21 0.0589242)
(9.49753 -1.30374e-20 0.0936818)
(9.04939 -1.08643e-20 0.066385)
(9.33947 1.80888e-20 0.107016)
(8.83659 1.05795e-20 0.0744181)
(9.16074 -2.57678e-20 0.121344)
(8.60287 9.17683e-21 0.0831526)
(8.96061 1.97852e-20 0.136863)
(8.34719 -1.00747e-20 0.092712)
(8.73819 -1.021e-20 0.153753)
(8.06834 0 0.103221)
(8.49239 5.11912e-21 0.172193)
(7.76499 0 0.114808)
(8.22195 0 0.192363)
(7.43572 -4.97579e-20 0.127596)
(7.92547 1.10491e-20 0.214427)
(7.07909 3.11305e-21 0.141706)
(7.60149 -6.06271e-20 0.238529)
(6.69367 5.0222e-20 0.157235)
(7.24855 7.49718e-20 0.264768)
(6.27824 -1.16641e-19 0.174251)
(6.86525 0 0.293173)
(5.83186 8.40295e-21 0.192768)
(6.45039 -3.02443e-19 0.323666)
(5.35407 1.18781e-19 0.212717)
(6.00313 3.98313e-19 0.356014)
(4.84519 -3.49611e-20 0.233907)
(5.5232 0 0.38977)
(4.30653 4.10257e-20 0.25598)
(5.01115 5.93673e-20 0.424195)
(3.74082 7.30668e-20 0.278357)
(4.46868 5.44175e-19 0.458188)
(3.15249 3.52064e-19 0.300177)
(3.89899 -5.66281e-19 0.490213)
(2.54804 -3.61761e-20 0.320246)
(3.30714 1.95029e-19 0.518239)
(1.93632 6.7182e-19 0.337083)
(2.70048 -3.74329e-19 0.539746)
(1.32837 3.35487e-19 0.350003)
(2.08916 2.27391e-18 0.552003)
(0.734944 -6.64056e-19 0.364062)
(1.48523 -2.3965e-18 0.554267)
(0.151817 -2.65136e-19 0.242255)
(0.926507 -4.15693e-19 0.558194)
(-0.262205 -2.60533e-19 -0.08874)
(0.312292 -3.40295e-20 0.402636)
(-0.327703 5.65403e-19 -0.340087)
(0.029367 0 0.0619563)
(-0.0373827 -1.67565e-21 -0.325902)
(9.99703 -7.90136e-21 0.0509961)
(9.99643 5.93361e-21 0.040012)
(9.9596 -6.13702e-21 0.0694483)
(9.979 -6.02328e-21 0.065967)
(9.89948 -4.06693e-21 0.0859611)
(9.93502 4.04566e-21 0.0875371)
(9.81851 2.60436e-20 0.103422)
(9.86636 -4.14533e-23 0.110507)
(9.71651 7.6335e-21 0.121842)
(9.77708 2.57219e-20 0.134779)
(9.59341 2.22989e-21 0.141262)
(9.66831 1.74966e-20 0.160228)
(9.44895 2.59964e-21 0.161983)
(9.53964 -1.63978e-20 0.187228)
(9.28255 -1.59564e-20 0.184332)
(9.3904 -5.53963e-20 0.216226)
(9.09343 0 0.208599)
(9.21991 3.76553e-20 0.247617)
(8.88055 5.18691e-21 0.235057)
(9.02741 0 0.28177)
(8.64274 5.05156e-21 0.263973)
(8.81189 7.8539e-23 0.319054)
(8.37866 1.11953e-20 0.295606)
(8.5722 0 0.359836)
(8.08687 -7.67134e-22 0.330187)
(8.30702 2.31364e-22 0.404464)
(7.76586 1.30257e-20 0.367901)
(8.01494 -2.26907e-20 0.453246)
(7.41416 2.37542e-20 0.408848)
(7.69449 6.76788e-22 0.506412)
(7.03036 -1.89825e-19 0.452997)
(7.34425 0 0.564059)
(6.61335 9.67334e-20 0.500126)
(6.96285 -2.12863e-19 0.62608)
(6.16244 2.74218e-19 0.549737)
(6.54923 2.24488e-19 0.692072)
(5.67757 9.51729e-20 0.600956)
(6.10272 -1.11754e-19 0.761208)
(5.15971 5.68955e-19 0.65242)
(5.62333 3.48089e-20 0.832086)
(4.61111 -1.09833e-19 0.70216)
(5.11201 4.7005e-19 0.902565)
(4.03576 -7.13209e-19 0.747479)
(4.57106 -5.66344e-19 0.96959)
(3.43987 -1.50402e-19 0.784833)
(4.0045 -8.58586e-19 1.029)
(2.83244 1.26126e-18 0.8097)
(3.41868 8.9194e-19 1.07529)
(2.22659 -5.15217e-19 0.816324)
(2.82307 9.25878e-19 1.1012)
(1.64471 -2.1258e-18 0.79674)
(2.23101 -1.72471e-18 1.09597)
(1.14087 -1.8159e-19 0.702788)
(1.66626 -4.24639e-20 1.03749)
(0.688929 2.25916e-19 0.497347)
(1.12461 6.77393e-18 0.838414)
(0.212456 -5.62959e-19 0.0106039)
(0.654949 -7.30028e-18 0.515885)
(0.269737 5.17494e-19 -0.0800087)
(9.98969 7.64525e-21 0.058146)
(9.99416 1.58222e-20 0.0448865)
(9.95541 4.29719e-21 0.08712)
(9.97419 -8.0139e-21 0.0826016)
(9.89891 8.01253e-21 0.11471)
(9.9312 -2.4413e-20 0.115706)
(9.82292 -1.77157e-23 0.143703)
(9.86559 -1.79586e-23 0.14944)
(9.72778 3.54734e-20 0.174377)
(9.7803 3.39789e-20 0.184854)
(9.61339 -1.58691e-21 0.206881)
(9.67652 4.61935e-22 0.222072)
(9.47956 -7.49159e-20 0.241635)
(9.55413 -4.45079e-20 0.261545)
(9.32588 -5.47255e-22 0.279127)
(9.41261 -3.46792e-20 0.30387)
(9.15171 3.71579e-20 0.319823)
(9.25149 3.76575e-20 0.349618)
(8.95623 -5.10654e-21 0.364174)
(9.07016 0 0.399335)
(8.73843 -4.97353e-21 0.41263)
(8.86785 -5.04022e-21 0.453567)
(8.49715 -1.09579e-20 0.465631)
(8.64363 0 0.512858)
(8.23111 -2.19971e-20 0.523589)
(8.39644 -3.19883e-20 0.577741)
(7.93893 -3.47256e-20 0.586843)
(8.12512 1.08278e-20 0.648699)
(7.61916 -2.30794e-20 0.655611)
(7.82842 2.21001e-20 0.726124)
(7.27038 -2.58338e-20 0.729908)
(7.50506 -4.28949e-19 0.810239)
(6.89129 -7.92891e-20 0.809448)
(7.1538 4.15528e-19 0.900999)
(6.48084 -1.65958e-19 0.893509)
(6.77346 6.72578e-19 0.997963)
(6.03838 -1.70134e-19 0.980759)
(6.36312 -1.72337e-18 1.10011)
(5.56401 -5.82873e-20 1.06905)
(5.92225 9.47112e-19 1.20561)
(5.05879 0 1.15519)
(5.45088 9.50068e-19 1.31157)
(4.5252 -7.15584e-19 1.23471)
(4.94997 -9.87772e-19 1.41371)
(3.96767 2.0546e-19 1.30152)
(4.42177 -9.69389e-19 1.50601)
(3.39323 5.57519e-19 1.34738)
(3.87017 3.12476e-18 1.58019)
(2.81257 -3.15532e-19 1.36074)
(3.30124 -2.3787e-18 1.62478)
(2.24109 3.7677e-19 1.3236)
(2.72301 -6.31567e-19 1.62313)
(1.69389 6.97371e-18 1.19599)
(2.14637 3.72442e-19 1.5502)
(1.14085 -8.65735e-19 0.93937)
(1.56973 6.53446e-18 1.35963)
(0.585318 -6.09565e-18 0.516124)
(0.964593 -7.69719e-18 1.03472)
(0.510431 -7.80461e-18 0.518985)
(9.98568 -1.61478e-22 0.0696845)
(9.99295 3.94911e-21 0.0516541)
(9.95138 -3.6947e-20 0.110318)
(9.97126 -4.00162e-21 0.0992464)
(9.8959 -3.21128e-20 0.149513)
(9.92814 -1.26355e-22 0.143373)
(9.82116 3.44382e-20 0.189739)
(9.86373 1.64933e-20 0.187735)
(9.72789 -1.48401e-21 0.231798)
(9.78021 3.39803e-20 0.233951)
(9.61611 -4.30642e-20 0.276135)
(9.67867 -3.45437e-20 0.28251)
(9.48571 -4.13861e-21 0.323336)
(9.55912 -5.52631e-23 0.333962)
(9.33643 4.48731e-21 0.374061)
(9.42122 3.34214e-23 0.389009)
(9.16785 0 0.428956)
(9.2646 0 0.448359)
(8.97938 0 0.488654)
(9.08881 -1.51841e-19 0.512702)
(8.77028 0 0.553786)
(8.89328 1.60722e-19 0.582722)
(8.53971 -2.14515e-20 0.624978)
(8.67732 -1.725e-19 0.659109)
(8.28673 1.39804e-21 0.702824)
(8.44013 1.65324e-19 0.742537)
(8.0103 6.78069e-20 0.787847)
(8.18085 3.68631e-19 0.83364)
(7.70933 -3.89713e-19 0.88043)
(7.89854 -3.53197e-19 0.932952)
(7.38269 2.34314e-20 0.980725)
(7.59225 -3.82781e-19 1.04083)
(7.02927 1.1709e-18 1.08852)
(7.26098 4.40856e-19 1.15734)
(6.64804 -9.16086e-19 1.20307)
(6.90372 8.25986e-19 1.28209)
(6.23816 -5.71608e-19 1.32287)
(6.51957 -1.71522e-18 1.41405)
(5.79911 1.95578e-18 1.44534)
(6.10771 1.76682e-18 1.55123)
(5.33091 -6.23108e-20 1.56655)
(5.6675 -1.698e-19 1.69034)
(4.83442 -1.24153e-18 1.68076)
(5.19872 -9.88043e-19 1.8264)
(4.3116 2.00094e-18 1.77997)
(4.70171 -2.62907e-19 1.95223)
(3.76587 1.22395e-19 1.85323)
(4.17749 2.23482e-18 2.05785)
(3.202 -2.67424e-18 1.88552)
(3.62785 -2.05912e-18 2.12973)
(2.6247 -6.2462e-19 1.85605)
(3.05477 -4.77207e-18 2.14991)
(2.03398 0 1.7331)
(2.45992 5.70004e-18 2.09555)
(1.4143 -4.22178e-19 1.49054)
(1.84116 3.46361e-19 1.93383)
(0.746973 -9.39676e-18 1.11212)
(1.15559 -3.04294e-20 1.65126)
(0.587103 -8.84474e-18 1.21644)
(9.98378 0 0.0818396)
(9.99238 -3.13882e-20 0.0593203)
(9.94907 3.28728e-20 0.132584)
(9.96985 0 0.11609)
(9.89453 4.87069e-20 0.182156)
(9.92683 4.86183e-20 0.170576)
(9.82119 1.62712e-20 0.23276)
(9.86367 -1.62173e-20 0.225316)
(9.7298 0 0.285569)
(9.78211 -8.3671e-20 0.282058)
(9.62049 8.92749e-21 0.341274)
(9.68302 3.40565e-20 0.341619)
(9.49317 4.11857e-21 0.400575)
(9.56646 7.88931e-20 0.404681)
(9.34762 -4.45486e-21 0.464229)
(9.43218 -3.92798e-21 0.472034)
(9.1835 -1.53849e-19 0.532994)
(9.27985 -7.29018e-20 0.544499)
(9.00035 1.29914e-20 0.607615)
(9.10912 -3.03485e-19 0.622879)
(8.79761 -1.61448e-20 0.688837)
(8.91952 3.09503e-19 0.707972)
(8.57462 1.8692e-20 0.777399)
(8.71047 -1.52681e-19 0.800578)
(8.33067 5.35259e-19 0.874012)
(8.48137 1.86533e-19 0.901482)
(8.06499 -6.17646e-20 0.979319)
(8.23151 7.3407e-21 1.01143)
(7.77678 -3.4669e-19 1.09383)
(7.96019 -9.62347e-20 1.13106)
(7.46518 4.53866e-20 1.2178)
(7.66665 4.62713e-20 1.26085)
(7.12934 1.00804e-19 1.35114)
(7.35008 -4.69251e-20 1.40098)
(6.76836 -5.98511e-21 1.49315)
(7.00964 3.87921e-21 1.55117)
(6.38136 6.68376e-19 1.64235)
(6.64441 7.01485e-19 1.71046)
(5.96747 -3.83543e-19 1.79606)
(6.25343 1.50197e-18 1.87695)
(5.5259 -1.10628e-18 1.95002)
(5.83555 -2.61853e-18 2.04731)
(5.05601 0 2.09791)
(5.38953 0 2.21639)
(4.55742 2.00299e-21 2.23079)
(4.91403 2.12084e-18 2.37664)
(4.02991 1.95607e-21 2.33644)
(4.40752 -1.71122e-18 2.51753)
(3.47309 -4.18552e-18 2.39876)
(3.86821 -4.17184e-18 2.62498)
(2.88541 1.66068e-18 2.39745)
(3.29369 5.32848e-19 2.68105)
(2.26233 5.99048e-18 2.3068)
(2.68049 3.47332e-19 2.66427)
(1.59275 7.3373e-19 2.10601)
(2.02746 5.48922e-18 2.54749)
(0.863967 3.82249e-19 1.78011)
(1.29044 5.95108e-18 2.31937)
(0.6465 -6.54806e-18 1.94634)
(9.98295 -3.09745e-20 0.0943125)
(9.99214 -3.13164e-20 0.0673773)
(9.94816 1.64098e-20 0.154604)
(9.96939 -1.5792e-20 0.132978)
(9.89474 -1.71849e-20 0.214262)
(9.92688 -3.20692e-20 0.197221)
(9.82319 -1.17071e-19 0.275176)
(9.86524 1.62514e-20 0.261979)
(9.73415 -4.80384e-20 0.338649)
(9.78599 -6.70314e-20 0.328942)
(9.62777 1.04623e-19 0.405542)
(9.68981 1.02067e-19 0.39915)
(9.504 6.97488e-20 0.476658)
(9.57676 -5.10548e-20 0.473435)
(9.36265 -7.32904e-20 0.552843)
(9.44663 7.10366e-20 0.552675)
(9.20343 -2.25576e-19 0.634958)
(9.29917 -6.8397e-20 0.637785)
(9.02594 1.06704e-21 0.723856)
(9.13407 -1.51072e-19 0.729668)
(8.82971 1.66938e-19 0.820387)
(8.9509 3.01647e-19 0.829223)
(8.61417 1.95896e-20 0.925393)
(8.74919 -4.59199e-19 0.937344)
(8.37875 -3.43793e-19 1.03969)
(8.52837 3.39106e-19 1.05491)
(8.12278 -2.85287e-20 1.16401)
(8.28786 -3.39441e-19 1.18275)
(7.84562 2.987e-19 1.29898)
(8.02702 3.45251e-19 1.32161)
(7.54654 -4.72529e-20 1.44498)
(7.74517 4.36042e-20 1.47208)
(7.22478 -1.43225e-19 1.60202)
(7.44157 -4.6664e-20 1.63445)
(6.87947 7.20283e-19 1.76954)
(7.11537 -9.51631e-20 1.80859)
(6.50963 1.54565e-18 1.9462)
(6.76553 1.26666e-19 1.99372)
(6.11405 -7.84243e-19 2.12945)
(6.39084 1.63395e-18 2.18816)
(5.69122 -1.47997e-18 2.31514)
(5.98969 -1.49867e-18 2.38887)
(5.23925 2.14663e-18 2.49694)
(5.55992 0 2.59095)
(4.75579 3.63381e-19 2.66582)
(5.09876 1.06499e-19 2.78712)
(4.23783 -5.91299e-18 2.8094)
(4.60268 1.38916e-19 2.9671)
(3.68151 5.94319e-19 2.91162)
(4.06722 -4.17227e-18 3.11701)
(3.08194 -7.78038e-19 2.95283)
(3.48709 4.15418e-18 3.21907)
(2.43302 -1.02706e-19 2.90963)
(2.85598 -5.34314e-18 3.2521)
(1.72745 1.06994e-17 2.76145)
(2.1745 4.83515e-18 3.18996)
(0.96294 -1.09904e-18 2.48728)
(1.40151 5.71613e-18 3.0174)
(0.701736 -6.53314e-18 2.6873)
(9.98274 -1.59285e-20 0.106858)
(9.9921 2.35271e-20 0.0755369)
(9.94827 -6.44968e-20 0.176278)
(9.96957 5.52257e-20 0.149708)
(9.8962 2.02208e-21 0.245585)
(9.92795 1.5725e-20 0.223194)
(9.82679 6.51757e-20 0.316431)
(9.86813 1.65431e-20 0.297555)
(9.74051 8.5343e-20 0.390165)
(9.79153 -3.30914e-20 0.374375)
(9.63756 -5.5655e-20 0.467797)
(9.6987 6.76208e-20 0.454838)
(9.51791 -4.8161e-20 0.550248)
(9.58967 -1.18812e-21 0.53991)
(9.3814 7.41003e-20 0.63846)
(9.46431 9.47102e-21 0.630566)
(9.22779 5.03777e-21 0.733388)
(9.3224 -1.52483e-19 0.727804)
(9.05672 1.55436e-19 0.835982)
(9.16366 1.45028e-19 0.83262)
(8.86775 -3.34417e-19 0.947186)
(8.98773 1.52892e-19 0.946006)
(8.66041 -1.29389e-19 1.06793)
(8.79416 -4.69592e-19 1.06895)
(8.43413 3.34784e-19 1.19912)
(8.58246 3.19468e-19 1.20241)
(8.18832 4.31595e-20 1.34158)
(8.35205 3.24732e-19 1.34731)
(7.92235 8.62385e-20 1.49604)
(8.10232 -2.87133e-19 1.50452)
(7.63551 4.30597e-20 1.663)
(7.83257 -7.2711e-19 1.67471)
(7.32698 8.04511e-22 1.84261)
(7.542 6.96838e-19 1.85835)
(6.99578 -6.86165e-19 2.03454)
(7.22966 9.13542e-20 2.05551)
(6.64065 2.33203e-19 2.23767)
(6.89427 -7.70994e-19 2.26569)
(6.25999 8.81675e-19 2.44981)
(6.53425 2.43177e-18 2.48754)
(5.85158 0 2.66723)
(6.14743 -1.66892e-18 2.71852)
(5.41242 -2.03921e-18 2.88408)
(5.73083 0 2.95438)
(4.93856 -1.19033e-19 3.09183)
(5.2804 -2.01638e-18 3.18853)
(4.42492 1.83257e-18 3.27863)
(4.79094 3.61885e-18 3.41146)
(3.86529 -5.21877e-19 3.42873)
(4.25594 -1.82816e-18 3.60987)
(3.25273 -5.10949e-19 3.52251)
(3.66795 3.72566e-18 3.76613)
(2.58067 -3.03678e-19 3.53605)
(3.01862 -4.09254e-18 3.85823)
(1.84515 -1.29347e-19 3.4454)
(2.30984 -2.31769e-19 3.85788)
(1.05105 1.64035e-19 3.21756)
(1.5039 5.05684e-18 3.74214)
(0.75497 -5.48702e-18 3.44243)
(9.9829 9.51077e-20 0.119272)
(9.99218 2.34551e-20 0.0836204)
(9.94914 1.34912e-19 0.197444)
(9.97019 5.52002e-20 0.166093)
(9.89869 3.02592e-20 0.275948)
(9.92981 7.98921e-20 0.248367)
(9.83172 -8.23972e-20 0.35631)
(9.87212 -9.68809e-20 0.331882)
(9.74862 -4.94723e-20 0.439895)
(9.7985 -4.17872e-22 0.418143)
(9.64957 1.2118e-19 0.52783)
(9.70942 -2.06931e-23 0.508421)
(9.5346 5.65963e-20 0.621144)
(9.60493 5.22857e-20 0.6038)
(9.40357 -2.19257e-19 0.720869)
(9.48491 -6.96628e-20 0.705346)
(9.25627 -8.6119e-21 0.828047)
(9.34919 2.42715e-21 0.814138)
(9.0924 1.42591e-19 0.943716)
(9.19755 8.8593e-22 0.93126)
(8.91157 9.68349e-21 1.06891)
(9.02967 0 1.05779)
(8.71332 -1.05384e-20 1.20464)
(8.84514 1.15922e-22 1.1948)
(8.49714 3.09454e-19 1.35192)
(8.6435 -1.97255e-20 1.34336)
(8.26243 -1.33146e-20 1.51168)
(8.4242 3.44489e-19 1.50449)
(8.00853 -1.10625e-18 1.68475)
(8.18661 -3.09745e-19 1.67916)
(7.73466 -5.56003e-20 1.87179)
(7.92999 -7.29427e-19 1.86821)
(7.43988 7.80058e-19 2.07316)
(7.65342 7.39412e-19 2.0723)
(7.12299 -3.99471e-21 2.28879)
(7.35577 9.0601e-20 2.29177)
(6.7824 1.46682e-18 2.51795)
(7.0355 -2.45056e-21 2.52648)
(6.41596 -1.67881e-19 2.75896)
(6.6906 1.53996e-18 2.77558)
(6.02075 -1.65001e-18 3.00875)
(6.31829 -1.57506e-18 3.03724)
(5.59274 0 3.26234)
(5.91473 1.65629e-18 3.30809)
(5.12658 1.78545e-18 3.51214)
(5.47475 -1.59385e-18 3.58264)
(4.61542 -1.01727e-19 3.74718)
(4.99157 1.66391e-18 3.85251)
(4.05107 2.47896e-18 3.95221)
(4.45673 -1.77593e-18 4.10541)
(3.4248 6.16883e-20 4.10707)
(3.86064 4.07478e-18 4.32387)
(2.72926 -3.97731e-18 4.18564)
(3.19251 -7.92442e-18 4.48448)
(1.96197 5.01607e-18 4.15818)
(2.45385 8.1583e-18 4.55497)
(1.13101 -6.84099e-19 3.97437)
(1.60802 4.31554e-19 4.50288)
(0.80728 -5.62022e-18 4.23106)
(9.98331 -1.60311e-20 0.131401)
(9.99235 0 0.0915084)
(9.95059 5.13919e-22 0.217953)
(9.97113 -4.71576e-20 0.181981)
(9.90201 -4.96388e-20 0.305207)
(9.93229 -1.57973e-20 0.272604)
(9.8378 -1.36033e-20 0.394638)
(9.87702 -3.03344e-22 0.364805)
(9.75825 4.90449e-20 0.487625)
(9.8067 8.20967e-20 0.460047)
(9.66356 -6.82292e-20 0.585381)
(9.72178 -1.31903e-19 0.559656)
(9.55378 -7.55916e-20 0.689033)
(9.62228 -6.55351e-22 0.664815)
(9.42882 1.52988e-19 0.799696)
(9.50813 -2.57365e-20 0.776675)
(9.28851 1.19192e-20 0.918493)
(9.37922 1.50738e-19 0.896393)
(9.1326 -1.41751e-19 1.04655)
(9.23536 -1.34762e-19 1.02513)
(8.96074 -9.56733e-21 1.18498)
(9.0763 0 1.16405)
(8.77252 -9.32569e-21 1.3349)
(8.90167 -1.05993e-20 1.31432)
(8.56744 1.9908e-20 1.49741)
(8.71106 -3.08344e-19 1.4771)
(8.34493 3.97956e-20 1.67357)
(8.50393 6.0806e-19 1.65354)
(8.10427 6.20168e-20 1.86437)
(8.27965 -9.27735e-19 1.84473)
(7.84461 8.38928e-20 2.07063)
(8.03744 6.83013e-19 2.05171)
(7.56484 4.17504e-20 2.293)
(7.77629 4.18261e-20 2.27537)
(7.26353 9.10148e-20 2.53176)
(7.49487 4.18255e-20 2.5164)
(6.93873 8.88643e-20 2.78667)
(7.19142 4.72231e-20 2.77511)
(6.58777 9.60777e-20 3.05673)
(6.8635 4.36743e-20 3.05131)
(6.20698 1.76971e-18 3.3398)
(6.50775 9.50049e-20 3.34404)
(5.79137 2.60796e-20 3.63204)
(6.11957 8.35524e-20 3.6511)
(5.33421 -1.6806e-18 3.9272)
(5.69265 -8.80424e-20 3.96846)
(4.82692 -4.76335e-20 4.21559)
(5.21867 1.55633e-18 4.28936)
(4.25912 -1.18281e-19 4.4828)
(4.68701 1.3391e-20 4.60301)
(3.61961 -4.04172e-18 4.70813)
(4.08533 -1.79221e-18 4.89269)
(2.89873 4.39554e-18 4.86251)
(3.39908 -3.81968e-18 5.13379)
(2.09273 3.46744e-18 4.909)
(2.62663 8.09311e-18 5.28942)
(1.20947 -4.54487e-18 4.77583)
(1.72757 -2.42686e-18 5.31649)
(0.863379 -4.64051e-18 5.08338)
(9.98391 -3.17485e-20 0.143124)
(9.99257 6.1622e-20 0.0991153)
(9.95247 -6.30423e-20 0.237673)
(9.97232 -3.13364e-20 0.197244)
(9.90604 3.37491e-20 0.333221)
(9.93527 -3.18064e-20 0.295775)
(9.84486 9.65072e-20 0.431245)
(9.88269 1.27787e-19 0.396178)
(9.76921 -1.01709e-19 0.533141)
(9.81599 3.29003e-20 0.499903)
(9.67929 -6.25972e-20 0.640192)
(9.73557 -1.3229e-19 0.60832)
(9.57518 4.88806e-20 0.753606)
(9.64148 6.70569e-20 0.72269)
(9.45685 -2.56964e-20 0.874577)
(9.53369 -1.35908e-19 0.844241)
(9.32415 3.49926e-22 1.0043)
(9.41214 1.28456e-19 0.974203)
(9.1769 8.74453e-21 1.14399)
(9.2767 1.40722e-19 1.11381)
(9.0148 -1.1668e-21 1.29484)
(9.12717 -4.28552e-19 1.26431)
(8.8375 -3.13434e-19 1.45806)
(8.96326 2.939e-19 1.42694)
(8.64454 2.91364e-19 1.63487)
(8.78459 -3.03793e-19 1.60299)
(8.43535 -3.7868e-19 1.82645)
(8.59067 5.93377e-19 1.7937)
(8.20921 -2.86957e-19 2.03397)
(8.38091 -9.67542e-19 2.00035)
(7.96521 6.33238e-19 2.25849)
(8.15451 6.61137e-19 2.22418)
(7.70214 4.18991e-20 2.50098)
(7.91041 -4.05749e-20 2.46635)
(7.41834 -1.91737e-21 2.76214)
(7.64718 9.48186e-22 2.72796)
(7.11158 1.95193e-21 3.04235)
(7.36288 -1.07897e-21 3.00987)
(6.77873 4.31863e-20 3.34148)
(7.05477 1.22783e-21 3.31268)
(6.41549 -1.59236e-18 3.6585)
(6.71907 0 3.63647)
(6.01594 -3.26967e-20 3.99107)
(6.35052 -2.97875e-18 3.98049)
(5.57206 3.16895e-18 4.33472)
(5.94184 4.36086e-18 4.34257)
(5.07335 1.60104e-18 4.68171)
(5.48318 1.96315e-19 4.71822)
(4.50673 -1.68122e-18 5.01919)
(4.96154 -3.99297e-20 5.09908)
(3.85719 -1.59098e-18 5.32675)
(4.36091 -1.56501e-18 5.47041)
(3.11016 1.36569e-20 5.57271)
(3.6609 1.38351e-20 5.80787)
(2.25668 2.05898e-18 5.71235)
(2.85285 1.7917e-18 6.07072)
(1.30046 -2.53485e-18 5.64906)
(1.88462 3.31399e-19 6.20435)
(0.93448 -2.6119e-18 6.03697)
(9.98464 6.08116e-20 0.154347)
(9.99284 -4.59273e-20 0.106377)
(9.95471 -1.04543e-22 0.256483)
(9.97371 -1.54865e-20 0.211777)
(9.91066 6.43836e-20 0.359855)
(9.93867 3.10085e-20 0.317762)
(9.85278 6.29071e-20 0.46597)
(9.88903 3.28061e-22 0.425864)
(9.78135 1.26375e-22 0.576248)
(9.8262 6.42304e-20 0.537544)
(9.69657 0 0.692026)
(9.75061 6.51397e-20 0.654209)
(9.59857 -1.20401e-19 0.814585)
(9.66231 -6.57443e-20 0.777182)
(9.48734 2.16789e-20 0.945187)
(9.56132 1.53639e-20 0.90776)
(9.36283 2.69012e-19 1.0851)
(9.44763 -1.51802e-20 1.04723)
(9.22488 -3.0389e-19 1.2356)
(9.32119 -2.38749e-20 1.19691)
(9.07328 -1.24337e-19 1.39798)
(9.18184 -7.12488e-21 1.35809)
(8.90773 2.96078e-19 1.57353)
(9.02938 -2.79964e-19 1.53213)
(8.72784 9.42219e-21 1.76359)
(8.86349 6.87376e-21 1.72038)
(8.53308 -1.4829e-20 1.96948)
(8.68379 6.48326e-21 1.92423)
(8.32277 6.40929e-22 2.19257)
(8.48972 2.76827e-19 2.14512)
(8.09599 -2.13808e-20 2.43418)
(8.28053 3.40697e-22 2.3845)
(7.85149 -8.10508e-20 2.69562)
(8.0552 -4.97435e-20 2.64387)
(7.58754 1.75563e-21 2.97812)
(7.81231 -3.11804e-20 2.92473)
(7.3017 -1.76991e-21 3.28277)
(7.54985 4.17039e-20 3.22859)
(6.9906 -4.20009e-20 3.61041)
(7.26502 -4.24996e-20 3.55688)
(6.64948 -1.4199e-18 3.96139)
(6.95384 2.53085e-21 3.91092)
(6.27172 1.49693e-18 4.33521)
(6.61069 -2.73272e-18 4.29165)
(5.84817 1.34132e-18 4.72977)
(6.22766 4.19482e-18 4.69921)
(5.3664 -1.44843e-18 5.14016)
(5.79368 -1.45461e-18 5.13218)
(4.81007 6.01584e-20 5.55658)
(5.29339 -1.46613e-18 5.58599)
(4.15878 5.87699e-20 5.9609)
(4.70645 2.74192e-18 6.05019)
(3.38951 1.81576e-18 6.32089)
(4.00433 -1.5323e-18 6.50389)
(2.48188 3.7938e-20 6.58486)
(3.16605 3.20101e-18 6.90596)
(1.42784 2.39856e-19 6.62782)
(2.11493 -1.79989e-18 7.1912)
(1.04221 3.6541e-19 7.13962)
(9.98547 -1.2184e-19 0.164994)
(9.99315 -4.62559e-20 0.113242)
(9.95723 1.6261e-20 0.274282)
(9.97524 4.60282e-20 0.225493)
(9.91577 -3.34663e-20 0.384989)
(9.9424 -1.24458e-19 0.338459)
(9.86143 2.50204e-21 0.498669)
(9.89592 3.0965e-20 0.45374)
(9.7945 1.29262e-19 0.616769)
(9.83722 6.3963e-20 0.572822)
(9.7152 -2.32559e-21 0.740674)
(9.76674 3.30287e-20 0.697143)
(9.62368 7.10899e-20 0.871721)
(9.68456 -3.32199e-20 0.828078)
(9.52001 -2.18854e-20 1.01124)
(9.59075 3.45576e-20 0.966978)
(9.40418 -3.08235e-19 1.16054)
(9.48536 -1.85376e-21 1.11519)
(9.27611 2.73145e-19 1.32099)
(9.3684 -2.22104e-21 1.27407)
(9.13566 -1.66171e-19 1.49393)
(9.23981 5.61061e-19 1.44501)
(8.98262 -5.65732e-19 1.68075)
(9.09946 -5.7332e-19 1.62939)
(8.81668 3.90377e-21 1.88291)
(8.94714 -2.94217e-19 1.8287)
(8.6374 3.01491e-19 2.10186)
(8.78255 2.27205e-21 2.04442)
(8.44418 2.73225e-19 2.33916)
(8.60525 3.03085e-19 2.27816)
(8.23618 -2.86279e-20 2.59642)
(8.41462 -1.91438e-20 2.53159)
(8.01221 3.68101e-22 2.87532)
(8.20975 -1.78525e-22 2.80652)
(7.77059 9.62755e-21 3.17763)
(7.98936 4.90139e-21 3.10487)
(7.50893 0 3.5052)
(7.75159 6.04448e-19 3.4288)
(7.22382 2.56054e-21 3.85995)
(7.49379 2.51249e-21 3.78063)
(6.91043 -1.34101e-18 4.24379)
(7.21216 -1.7352e-20 4.16297)
(6.56185 4.14766e-20 4.65836)
(6.90121 -2.62197e-18 4.57863)
(6.16827 1.3363e-18 5.10458)
(6.55301 1.97131e-18 5.03046)
(5.71574 -1.47281e-18 5.58161)
(6.15607 -1.25433e-18 5.5209)
(5.18468 1.26574e-18 6.08486)
(5.69352 1.07779e-18 6.05094)
(4.54813 1.09777e-18 6.60212)
(5.14112 1.56332e-18 6.61763)
(3.77069 -8.62892e-20 7.10585)
(4.46101 -1.45149e-18 7.20946)
(2.81088 1.28314e-18 7.5424)
(3.61391 1.32964e-18 7.79379)
(1.63153 -1.63597e-18 7.75595)
(2.47844 -1.5933e-20 8.30382)
(1.22881 -2.36868e-18 8.4634)
(9.9864 1.22826e-19 0.175003)
(9.99348 1.2208e-19 0.119672)
(9.95998 -9.70148e-20 0.290979)
(9.97691 -1.52563e-20 0.238321)
(9.9213 -5.79368e-20 0.408516)
(9.94642 -7.81644e-20 0.357773)
(9.87071 9.28726e-20 0.529214)
(9.90328 6.29909e-20 0.479696)
(9.80852 -3.26879e-20 0.65455)
(9.84891 -9.49964e-20 0.605604)
(9.73498 1.26304e-21 0.785948)
(9.78378 3.17515e-20 0.736964)
(9.65029 -6.88759e-20 0.924793)
(9.70802 9.74354e-20 0.875189)
(9.55455 5.41161e-20 1.07246)
(9.62172 -3.94043e-19 1.02167)
(9.44784 3.04213e-19 1.23032)
(9.525 2.82665e-19 1.17781)
(9.33014 2.92869e-19 1.39978)
(9.41795 2.88099e-19 1.34501)
(9.20142 1.3967e-19 1.58226)
(9.3006 4.05408e-21 1.52469)
(9.06156 -2.98256e-19 1.77922)
(9.17292 2.60693e-19 1.71832)
(8.91035 -2.92257e-19 1.9922)
(9.03482 -5.65352e-19 1.92743)
(8.7475 7.4762e-21 2.22282)
(8.88614 5.65738e-22 2.15364)
(8.57253 6.75137e-21 2.47279)
(8.72658 2.35906e-21 2.39868)
(8.38477 9.54003e-21 2.74398)
(8.55571 5.76991e-19 2.66441)
(8.18321 4.4166e-21 3.03844)
(8.37285 -5.69905e-19 2.95292)
(7.96639 6.06874e-19 3.35846)
(8.17698 5.77065e-19 3.26655)
(7.73221 6.00333e-19 3.70665)
(7.9666 2.59092e-20 3.60801)
(7.47758 -1.74877e-20 4.08602)
(7.73953 2.51394e-21 3.98047)
(7.19805 -1.3275e-18 4.50007)
(7.49255 -5.94526e-19 4.38778)
(6.88712 -6.41225e-19 4.9528)
(7.22095 -6.94814e-20 4.8346)
(6.53523 -6.56482e-19 5.44866)
(6.91774 3.78443e-20 5.32662)
(6.12811 1.3245e-18 5.99209)
(6.57242 -1.26606e-18 5.87071)
(5.6443 1.38026e-18 6.58635)
(6.16878 2.62179e-18 6.47486)
(5.05103 -1.02467e-18 7.23067)
(5.68158 -1.19672e-18 7.14738)
(4.29825 1.12742e-21 7.91265)
(5.06658 8.25794e-20 7.8947)
(3.31106 4.58259e-21 8.5936)
(4.26503 -6.52007e-21 8.71121)
(1.98622 -7.6175e-19 9.09937)
(3.08492 8.93424e-21 9.56187)
(1.58713 -6.93623e-19 10.14)
(9.98738 -1.78162e-20 0.184323)
(9.99384 4.17914e-23 0.125636)
(9.96292 2.74096e-21 0.306502)
(9.97867 -7.67809e-20 0.250202)
(9.92716 4.46666e-20 0.430342)
(9.95065 1.38742e-19 0.375628)
(9.8805 -1.26995e-19 0.557493)
(9.91101 -3.12928e-20 0.50364)
(9.82326 -2.88839e-20 0.689461)
(9.86116 -9.48608e-20 0.63578)
(9.75573 1.28793e-19 0.827697)
(9.80159 9.55922e-20 0.773539)
(9.67814 -2.3412e-19 0.973626)
(9.73247 2.56981e-19 0.918358)
(9.59066 -1.56805e-19 1.12866)
(9.65394 -5.52972e-19 1.07167)
(9.49342 2.66617e-19 1.29421)
(9.5662 1.31466e-19 1.23489)
(9.38652 -4.32545e-21 1.47171)
(9.46941 2.66377e-19 1.40946)
(9.27 1.2831e-19 1.66264)
(9.36369 -1.35442e-19 1.59683)
(9.14387 -1.65856e-20 1.86853)
(9.24914 -1.18488e-20 1.79853)
(9.00806 -2.65551e-19 2.09098)
(9.1258 -1.36957e-20 2.01614)
(8.86243 -4.53103e-21 2.33172)
(8.99366 -2.93245e-19 2.25134)
(8.70672 5.79631e-19 2.59262)
(8.85264 2.89951e-19 2.50597)
(8.54047 -1.60173e-20 2.87576)
(8.70253 5.77206e-19 2.78206)
(8.363 1.62588e-20 3.18349)
(8.54297 -1.14365e-18 3.08189)
(8.17324 -1.03343e-20 3.51857)
(8.37335 1.14714e-18 3.40812)
(7.9696 -5.72338e-19 3.88424)
(8.19271 -6.14255e-19 3.7639)
(7.74971 -5.81375e-19 4.2845)
(7.99961 -5.66899e-19 4.15311)
(7.51007 6.70109e-19 4.72429)
(7.79187 5.55935e-19 4.58058)
(7.24545 6.1104e-19 5.20989)
(7.56623 1.15272e-18 5.05254)
(6.94793 -5.8637e-19 5.74933)
(7.31781 -1.15167e-18 5.57717)
(6.60517 7.53111e-20 6.35293)
(7.03908 0 6.16548)
(6.19732 -1.21149e-21 7.03391)
(6.718 1.39928e-19 6.83267)
(5.69097 -7.29163e-20 7.8089)
(6.33495 -1.0829e-20 7.60035)
(5.02685 7.37551e-20 8.69683)
(5.85155 1.81781e-19 8.50087)
(4.09236 -2.51061e-21 9.71649)
(5.21063 -1.66088e-19 9.58295)
(2.65779 7.14169e-20 10.773)
(4.16141 -7.32235e-20 10.9316)
(2.3568 6.39672e-20 12.4497)
(9.98842 -5.99355e-20 0.192915)
(9.99421 -4.99921e-21 0.131108)
(9.96601 6.2153e-20 0.320788)
(9.9805 5.72175e-20 0.261091)
(9.9333 6.04946e-20 0.450385)
(9.95506 -5.3103e-20 0.391961)
(9.89071 0 0.583401)
(9.91905 -5.81289e-20 0.525495)
(9.8386 3.21307e-20 0.721362)
(9.87387 0 0.66326)
(9.77728 2.25893e-19 0.865746)
(9.82004 2.70732e-21 0.806761)
(9.70701 -7.23482e-20 1.018)
(9.75777 1.95518e-19 0.957462)
(9.62803 -2.55926e-19 1.17956)
(9.68726 -1.42073e-19 1.11681)
(9.54056 1.32921e-19 1.35188)
(9.60878 -2.45439e-19 1.28625)
(9.44477 1.30207e-19 1.5364)
(9.52258 2.57718e-19 1.46723)
(9.34083 -2.74093e-19 1.73463)
(9.42888 0 1.66122)
(9.22886 -8.9984e-21 1.94815)
(9.3279 -2.60007e-19 1.86978)
(9.10896 -4.47819e-20 2.1786)
(9.21983 2.14145e-20 2.0945)
(8.98119 8.27871e-21 2.42779)
(9.10486 2.29331e-19 2.33712)
(8.84552 2.90937e-19 2.6977)
(8.98313 -2.63607e-19 2.59953)
(8.7018 -5.70894e-19 2.99054)
(8.85472 4.85974e-19 2.88384)
(8.54976 1.40508e-20 3.3089)
(8.71964 -8.34654e-19 3.19247)
(8.38886 5.22957e-19 3.65584)
(8.57781 5.75812e-19 3.52826)
(8.21827 -6.08311e-19 4.03507)
(8.42895 -5.23013e-19 3.89464)
(8.03665 5.83397e-19 4.45129)
(8.27258 -9.06854e-20 4.29586)
(7.84201 1.04538e-18 4.91052)
(8.10794 1.66573e-18 4.73739)
(7.6313 -6.35873e-19 5.42074)
(7.93381 -5.19804e-19 5.22635)
(7.39983 -5.51929e-19 5.99283)
(7.74843 -5.69064e-19 5.77245)
(7.14017 6.62694e-20 6.64209)
(7.54919 0 6.38927)
(6.83989 1.28519e-19 7.39105)
(7.33225 -2.24797e-19 7.09676)
(6.47667 2.46402e-19 8.27517)
(7.09257 1.66304e-20 7.92612)
(6.00599 -6.08719e-20 9.35618)
(6.82082 4.52651e-19 8.93155)
(5.3217 -2.35622e-19 10.7738)
(6.5346 -2.43481e-19 10.2228)
(4.08576 -8.69422e-20 12.9927)
(6.2932 0 12.1163)
(5.37852 -2.48795e-21 16.0654)
(0.144776 8.518e-21 -0.0830236)
(0.0698068 5.77645e-20 -0.141712)
(0.333938 3.62867e-21 -0.0942202)
(0.238295 3.85893e-21 -0.171234)
(0.51569 3.74112e-21 -0.0851393)
(0.420719 5.59599e-20 -0.159178)
(0.673566 0 -0.0701364)
(0.589472 -9.83125e-20 -0.134892)
(0.804985 0 -0.054952)
(0.735263 5.52021e-20 -0.110021)
(0.911157 0 -0.0410334)
(0.856685 5.37564e-21 -0.0872631)
(0.99371 0 -0.0285262)
(0.955242 0 -0.0666559)
(1.05423 1.02222e-21 -0.0173917)
(1.0329 -4.45107e-21 -0.0480051)
(1.09446 1.04281e-21 -0.00761513)
(1.09142 -1.2406e-23 -0.0313298)
(1.11627 -1.66785e-21 0.000719684)
(1.13251 7.24048e-21 -0.0166568)
(1.12191 7.16812e-22 0.00718518)
(1.15781 -8.78697e-21 -0.00419685)
(1.11363 2.47812e-21 0.0115929)
(1.16898 1.65656e-21 0.00613755)
(1.09509 -6.56081e-22 0.0143616)
(1.16743 2.83365e-21 0.0134377)
(1.06926 -2.96961e-23 0.0159289)
(1.15623 -3.44132e-21 0.0183439)
(1.03866 6.5909e-22 0.0165508)
(1.13858 1.27314e-21 0.0212843)
(1.00548 0 0.0162521)
(1.11682 5.32632e-22 0.0226084)
(0.972271 0 0.0149387)
(1.09305 -1.08456e-21 0.0221605)
(0.941756 2.04415e-22 0.0127418)
(1.06975 -4.74662e-22 0.0199482)
(0.915719 -8.31142e-23 0.0100995)
(1.04922 2.0662e-22 0.0166722)
(0.894476 -4.52921e-22 0.0074722)
(1.03239 -2.94077e-22 0.0133249)
(0.877427 -8.28551e-23 0.00502422)
(1.01863 -3.22447e-22 0.0104769)
(0.864402 7.84601e-23 0.00253021)
(1.00698 7.7635e-23 0.00784257)
(0.85673 0 -0.000307996)
(0.997411 3.51463e-22 0.00453106)
(0.856715 4.13346e-23 -0.00336421)
(0.991134 -1.72553e-23 2.73174e-05)
(0.865777 4.22135e-23 -0.00617783)
(0.989048 -8.8927e-23 -0.00509424)
(0.883474 0 -0.00849182)
(0.991876 2.90124e-23 -0.0097625)
(0.908947 0 -0.0104037)
(1.0001 -2.84433e-23 -0.0137742)
(0.941502 -2.24238e-23 -0.0119701)
(1.01396 7.24902e-24 -0.0172534)
(0.979658 -1.48634e-23 -0.0124828)
(1.03371 -5.08081e-23 -0.0198194)
(1.06602 -1.94252e-24 -0.0190641)
(0.141219 5.38777e-20 -0.243247)
(0.0481742 1.84191e-19 -0.308943)
(0.329327 5.55062e-20 -0.252103)
(0.211521 -1.28167e-19 -0.342624)
(0.504624 -4.57955e-20 -0.224558)
(0.38063 5.24749e-20 -0.312775)
(0.658776 -4.35798e-20 -0.188295)
(0.535124 -5.53665e-20 -0.266489)
(0.790938 6.11253e-20 -0.153189)
(0.668435 9.8811e-22 -0.220607)
(0.902477 5.43163e-21 -0.12133)
(0.781533 4.12983e-20 -0.178942)
(0.994938 -4.40597e-21 -0.0926525)
(0.876344 -4.04895e-20 -0.141352)
(1.06981 -5.51289e-21 -0.0669696)
(0.954595 1.13437e-22 -0.107452)