/*--------------------------------*- C++ -*----------------------------------*\
| =========                 |                                                 |
| \\      /  F ield         | OpenFOAM: The Open Source CFD Toolbox           |
|  \\    /   O peration     | Version:  2006                                  |
|   \\  /    A nd           | Website:  www.openfoam.com                      |
|    \\/     M anipulation  |                                                 |
\*---------------------------------------------------------------------------*/
FoamFile
{
    version     2.0;
    format      ascii;
    class       volVectorField;
    location    "0.6";
    object      flux;
}
// * * * * * * * * * * * * * * * * * * * * * * * * * * * * * * * * * * * * * //

dimensions      [0 1 -1 1 0 0 0];


internalField   nonuniform List<vector> 
512
(
(0.0108274 -28.144 0)
(0.0305929 -28.0565 0)
(0.045495 -27.8968 0)
(0.0542544 -27.6894 0)
(0.0572328 -27.4599 0)
(0.055711 -27.2293 0)
(0.0512136 -27.0127 0)
(0.0451238 -26.8187 0)
(0.038448 -26.6514 0)
(0.0318692 -26.5112 0)
(0.0257783 -26.3967 0)
(0.0203506 -26.3053 0)
(0.0156202 -26.2342 0)
(0.0115338 -26.1806 0)
(0.00798685 -26.1422 0)
(0.00484718 -26.1169 0)
(0.00196893 -26.1035 0)
(-0.000798936 -26.1012 0)
(-0.00360733 -26.1099 0)
(-0.00660179 -26.13 0)
(-0.00991426 -26.1625 0)
(-0.0136485 -26.2091 0)
(-0.0178544 -26.2715 0)
(-0.0224884 -26.3517 0)
(-0.0273556 -26.4513 0)
(-0.0320392 -26.5707 0)
(-0.0358351 -26.7081 0)
(-0.0377354 -26.8583 0)
(-0.0365364 -27.0115 0)
(-0.0311608 -27.1527 0)
(-0.0212121 -27.2631 0)
(-0.007554 -27.3243 0)
(0.0329559 -28.1645 0)
(0.0930018 -28.0731 0)
(0.138028 -27.9073 0)
(0.164222 -27.6935 0)
(0.172835 -27.4586 0)
(0.167889 -27.2242 0)
(0.154055 -27.0054 0)
(0.135527 -26.8104 0)
(0.115332 -26.6429 0)
(0.0954982 -26.503 0)
(0.0771795 -26.389 0)
(0.0608858 -26.2983 0)
(0.0467063 -26.2279 0)
(0.0344717 -26.1749 0)
(0.0238628 -26.1369 0)
(0.0144791 -26.112 0)
(0.00588108 -26.0988 0)
(-0.00238587 -26.0965 0)
(-0.0107757 -26.1051 0)
(-0.0197271 -26.1249 0)
(-0.0296397 -26.1571 0)
(-0.0408308 -26.2032 0)
(-0.0534608 -26.2651 0)
(-0.0674126 -26.345 0)
(-0.0821194 -26.4445 0)
(-0.0963472 -26.5643 0)
(-0.107988 -26.703 0)
(-0.11399 -26.8558 0)
(-0.110661 -27.0128 0)
(-0.0946324 -27.1587 0)
(-0.0645675 -27.2737 0)
(-0.0230255 -27.3379 0)
(0.0565542 -28.2065 0)
(0.159189 -28.1069 0)
(0.235292 -27.9284 0)
(0.278624 -27.7014 0)
(0.291866 -27.4556 0)
(0.282324 -27.2137 0)
(0.25812 -26.9905 0)
(0.226381 -26.7935 0)
(0.192162 -26.6257 0)
(0.158785 -26.4865 0)
(0.128105 -26.3738 0)
(0.100917 -26.2845 0)
(0.077326 -26.2154 0)
(0.0570192 -26.1636 0)
(0.0394449 -26.1265 0)
(0.0239236 -26.1022 0)
(0.00971605 -26.0893 0)
(-0.00393969 -26.0871 0)
(-0.0178045 -26.0954 0)
(-0.032616 -26.1148 0)
(-0.0490524 -26.1462 0)
(-0.0676637 -26.1914 0)
(-0.0887502 -26.2523 0)
(-0.112165 -26.3314 0)
(-0.137023 -26.4307 0)
(-0.161326 -26.5514 0)
(-0.181576 -26.6927 0)
(-0.192603 -26.8504 0)
(-0.187986 -27.0151 0)
(-0.161632 -27.1707 0)
(-0.110801 -27.2954 0)
(-0.039625 -27.3658 0)
(0.0827708 -28.272 0)
(0.232054 -28.1591 0)
(0.340785 -27.9602 0)
(0.400611 -27.7125 0)
(0.416665 -27.4502 0)
(0.40048 -27.197 0)
(0.364151 -26.9673 0)
(0.317912 -26.7677 0)
(0.268842 -26.5996 0)
(0.221457 -26.4616 0)
(0.178209 -26.3508 0)
(0.140091 -26.2636 0)
(0.107158 -26.1966 0)
(0.0789105 -26.1466 0)
(0.0545343 -26.1109 0)
(0.0330546 -26.0876 0)
(0.0134224 -26.0752 0)
(-0.00543726 -26.0731 0)
(-0.0245978 -26.0811 0)
(-0.0451052 -26.0996 0)
(-0.0679333 -26.1299 0)
(-0.0938951 -26.1736 0)
(-0.123481 -26.2331 0)
(-0.156587 -26.3108 0)
(-0.192102 -26.4096 0)
(-0.227358 -26.5314 0)
(-0.257514 -26.6764 0)
(-0.275171 -26.8415 0)
(-0.270784 -27.0178 0)
(-0.234782 -27.1886 0)
(-0.162129 -27.3288 0)
(-0.0582385 -27.4096 0)
(0.113044 -28.3644 0)
(0.315124 -28.2314 0)
(0.458563 -28.0026 0)
(0.533625 -27.7259 0)
(0.549631 -27.4408 0)
(0.523754 -27.1728 0)
(0.472776 -26.935 0)
(0.410238 -26.7322 0)
(0.345186 -26.5642 0)
(0.283177 -26.4281 0)
(0.227103 -26.3201 0)
(0.178027 -26.2359 0)
(0.135867 -26.1716 0)
(0.0998717 -26.124 0)
(0.0689288 -26.0902 0)
(0.0417447 -26.0682 0)
(0.0169487 -26.0566 0)
(-0.00685407 -26.0546 0)
(-0.0310562 -26.062 0)
(-0.0570234 -26.0795 0)
(-0.0860474 -26.1082 0)
(-0.119245 -26.1499 0)
(-0.157365 -26.2072 0)
(-0.200448 -26.2831 0)
(-0.247297 -26.3809 0)
(-0.294724 -26.5037 0)
(-0.336641 -26.6533 0)
(-0.363314 -26.828 0)
(-0.361541 -27.0202 0)
(-0.317136 -27.2125 0)
(-0.221275 -27.3755 0)
(-0.0799912 -27.4718 0)
(0.149299 -28.4887 0)
(0.412943 -28.3263 0)
(0.593523 -28.0557 0)
(0.68151 -27.7399 0)
(0.693216 -27.4257 0)
(0.653411 -27.1394 0)
(0.584443 -26.8922 0)
(0.50331 -26.6863 0)
(0.420882 -26.519 0)
(0.343518 -26.3858 0)
(0.274338 -26.2815 0)
(0.21431 -26.2012 0)
(0.163095 -26.1405 0)
(0.119619 -26.096 0)
(0.0824211 -26.0646 0)
(0.0498644 -26.0442 0)
(0.0202433 -26.0335 0)
(-0.00816404 -26.0316 0)
(-0.0370757 -26.0385 0)
(-0.0681892 -26.0546 0)
(-0.10314 -26.0812 0)
(-0.143397 -26.1204 0)
(-0.190051 -26.1747 0)
(-0.243422 -26.2479 0)
(-0.302413 -26.344 0)
(-0.363542 -26.4674 0)
(-0.419661 -26.6219 0)
(-0.458651 -26.8083 0)
(-0.463028 -27.0208 0)
(-0.412405 -27.2419 0)
(-0.291791 -27.437 0)
(-0.106413 -27.5564 0)
(0.194263 -28.6522 0)
(0.53164 -28.4469 0)
(0.751753 -28.1185 0)
(0.848599 -27.752 0)
(0.849867 -27.4021 0)
(0.790501 -27.0946 0)
(0.699342 -26.8375 0)
(0.596855 -26.6289 0)
(0.495448 -26.4634 0)
(0.401943 -26.3343 0)
(0.319398 -26.2349 0)
(0.248483 -26.1596 0)
(0.188465 -26.1035 0)
(0.137856 -26.0626 0)
(0.0947989 -26.0341 0)
(0.0572828 -26.0158 0)
(0.0232548 -26.0061 0)
(-0.00933952 -26.0044 0)
(-0.0425479 -26.0105 0)
(-0.0784102 -26.025 0)
(-0.118931 -26.0491 0)
(-0.165988 -26.0849 0)
(-0.221111 -26.1355 0)
(-0.285059 -26.2049 0)
(-0.357077 -26.2982 0)
(-0.433708 -26.4214 0)
(-0.507063 -26.5807 0)
(-0.562743 -26.7801 0)
(-0.578353 -27.0174 0)
(-0.525235 -27.276 0)
(-0.378526 -27.5156 0)
(-0.139699 -27.6691 0)
(0.251972 -28.8658 0)
(0.679787 -28.597 0)
(0.940958 -28.1896 0)
(1.03975 -27.7586 0)
(1.0219 -27.3663 0)
(0.935717 -27.0357 0)
(0.817299 -26.7689 0)
(0.690316 -26.5591 0)
(0.568205 -26.397 0)
(0.45778 -26.2735 0)
(0.361684 -26.1805 0)
(0.280042 -26.1113 0)
(0.211572 -26.0606 0)
(0.154277 -26.0242 0)
(0.105845 -25.9992 0)
(0.0638672 -25.9831 0)
(0.0259312 -25.9747 0)
(-0.0103518 -25.9732 0)
(-0.0473603 -25.9784 0)
(-0.0874836 -25.9909 0)
(-0.133121 -26.012 0)
(-0.18661 -26.0438 0)
(-0.250028 -26.0896 0)
(-0.324759 -26.154 0)
(-0.410685 -26.243 0)
(-0.504803 -26.3645 0)
(-0.599003 -26.5276 0)
(-0.676973 -26.7407 0)
(-0.710968 -27.0068 0)
(-0.661543 -27.3131 0)
(-0.488336 -27.6141 0)
(-0.183141 -27.8185 0)
(0.328667 -29.1453 0)
(0.869744 -28.7804 0)
(1.17096 -28.2652 0)
(1.26026 -27.754 0)
(1.2113 -27.3135 0)
(1.08921 -26.9592 0)
(0.937661 -26.6843 0)
(0.782781 -26.4755 0)
(0.638235 -26.3191 0)
(0.510212 -26.2032 0)
(0.40051 -26.1182 0)
(0.308435 -26.0564 0)
(0.231989 -26.0121 0)
(0.168562 -25.981 0)
(0.115339 -25.9599 0)
(0.0694843 -25.9466 0)
(0.0282207 -25.9396 0)
(-0.0111721 -25.9383 0)
(-0.0513985 -25.9425 0)
(-0.0951986 -25.9527 0)
(-0.145383 -25.9702 0)
(-0.204802 -25.9972 0)
(-0.276189 -26.0371 0)
(-0.361752 -26.0949 0)
(-0.462358 -26.1778 0)
(-0.576005 -26.2953 0)
(-0.695139 -26.4601 0)
(-0.802339 -26.6862 0)
(-0.864565 -26.9844 0)
(-0.828899 -27.3498 0)
(-0.631214 -27.7351 0)
(-0.241882 -28.0173 0)
(0.434385 -29.5147 0)
(1.11983 -29.0002 0)
(1.45419 -28.3385 0)
(1.51557 -27.7303 0)
(1.41927 -27.2378 0)
(1.25031 -26.8614 0)
(1.05916 -26.5817 0)
(0.87292 -26.3772 0)
(0.704358 -26.2293 0)
(0.558263 -26.1234 0)
(0.4351 -26.0482 0)
(0.333065 -25.9952 0)
(0.249265 -25.9585 0)
(0.180387 -25.9333 0)
(0.123058 -25.9167 0)
(0.0740009 -25.9065 0)
(0.0300714 -25.9011 0)
(-0.0117727 -25.9 0)
(-0.0545489 -25.903 0)
(-0.10134 -25.9106 0)
(-0.155377 -25.924 0)
(-0.220063 -25.9454 0)
(-0.298888 -25.9781 0)
(-0.395089 -26.0277 0)
(-0.510896 -26.1019 0)
(-0.645983 -26.2125 0)
(-0.794416 -26.3755 0)
(-0.939111 -26.6118 0)
(-1.04279 -26.9435 0)
(-1.03689 -27.3799 0)
(-0.822099 -27.8802 0)
(-0.324269 -28.2852 0)
(0.585917 -30.0117 0)
(1.45787 -29.2556 0)
(1.80594 -28.3973 0)
(1.81061 -27.6762 0)
(1.64575 -27.1316 0)
(1.41727 -26.7377 0)
(1.17975 -26.4585 0)
(0.958934 -26.2629 0)
(0.76512 -26.1273 0)
(0.600804 -26.0341 0)
(0.464599 -25.9707 0)
(0.353292 -25.9281 0)
(0.262936 -25.8999 0)
(0.189422 -25.8816 0)
(0.128782 -25.87 0)
(0.0772866 -25.8631 0)
(0.0314312 -25.8596 0)
(-0.0121286 -25.8587 0)
(-0.0567023 -25.8605 0)
(-0.105696 -25.8652 0)
(-0.162754 -25.8739 0)
(-0.231857 -25.8887 0)
(-0.317334 -25.913 0)
(-0.423641 -25.9523 0)
(-0.554757 -26.0151 0)
(-0.712787 -26.1146 0)
(-0.894806 -26.2707 0)
(-1.08633 -26.5118 0)
(-1.2486 -26.8746 0)
(-1.29725 -27.3923 0)
(-1.08386 -28.0475 0)
(-0.444376 -28.6526 0)
(0.812459 -30.6968 0)
(1.92707 -29.5352 0)
(2.24388 -28.4206 0)
(2.14842 -27.5766 0)
(1.88851 -26.9861 0)
(1.58684 -26.5838 0)
(1.29654 -26.3127 0)
(1.03853 -26.1319 0)
(0.818794 -26.0127 0)
(0.636566 -25.9353 0)
(0.488083 -25.886 0)
(0.368454 -25.8554 0)
(0.272535 -25.8369 0)
(0.195345 -25.826 0)
(0.132299 -25.82 0)
(0.0792163 -25.8168 0)
(0.0322492 -25.8152 0)
(-0.0122192 -25.8147 0)
(-0.0577587 -25.815 0)
(-0.108063 -25.8166 0)
(-0.167169 -25.8202 0)
(-0.23963 -25.8276 0)
(-0.330672 -25.8421 0)
(-0.446117 -25.869 0)
(-0.592046 -25.9171 0)
(-0.773777 -26.0006 0)
(-0.993019 -26.1427 0)
(-1.24108 -26.3795 0)
(-1.48303 -26.7652 0)
(-1.62332 -27.3686 0)
(-1.45227 -28.2256 0)
(-0.626844 -29.1698 0)
(1.16671 -31.6714 0)
(2.59596 -29.8018 0)
(2.78525 -28.3751 0)
(2.52784 -27.4122 0)
(2.14216 -26.7921 0)
(1.75398 -26.3952 0)
(1.40567 -26.1425 0)
(1.10892 -25.9836 0)
(0.863414 -25.8858 0)
(0.664166 -25.8275 0)
(0.504584 -25.7946 0)
(0.377875 -25.7775 0)
(0.2776 -25.7697 0)
(0.197845 -25.7671 0)
(0.13341 -25.7671 0)
(0.0796745 -25.7679 0)
(0.0324765 -25.7684 0)
(-0.0120299 -25.7682 0)
(-0.0576325 -25.7671 0)
(-0.108261 -25.7652 0)
(-0.168298 -25.7633 0)
(-0.242838 -25.7626 0)
(-0.338017 -25.7659 0)
(-0.461111 -25.7783 0)
(-0.620554 -25.808 0)
(-0.825591 -25.8699 0)
(-1.08425 -25.9889 0)
(-1.3976 -26.208 0)
(-1.74315 -26.5995 0)
(-2.02746 -27.2797 0)
(-1.98443 -28.3803 0)
(-0.916431 -29.9212 0)
(1.74727 -33.1126 0)
(3.57519 -29.9564 0)
(3.43868 -28.2125 0)
(2.93991 -27.1606 0)
(2.39697 -26.5409 0)
(1.91163 -26.169 0)
(1.50237 -25.9472 0)
(1.16692 -25.8181 0)
(0.896827 -25.7469 0)
(0.682153 -25.7114 0)
(0.513117 -25.6972 0)
(0.38089 -25.6952 0)
(0.277694 -25.6992 0)
(0.196638 -25.7055 0)
(0.131934 -25.7119 0)
(0.0785589 -25.7169 0)
(0.0320664 -25.7197 0)
(-0.0115543 -25.7199 0)
(-0.0562596 -25.7173 0)
(-0.106139 -25.7118 0)
(-0.165858 -25.7039 0)
(-0.240971 -25.6945 0)
(-0.338499 -25.6854 0)
(-0.467166 -25.6811 0)
(-0.637849 -25.6889 0)
(-0.864222 -25.7228 0)
(-1.16207 -25.8082 0)
(-1.54637 -25.9914 0)
(-2.0189 -26.3599 0)
(-2.5137 -27.0841 0)
(-2.77303 -28.4232 0)
(-1.39732 -31.0566 0)
(2.74484 -35.3424 0)
(5.04604 -29.7571 0)
(4.18312 -27.8756 0)
(3.36365 -26.7998 0)
(2.63797 -26.2261 0)
(2.05083 -25.9037 0)
(1.58112 -25.7268 0)
(1.20904 -25.6364 0)
(0.916773 -25.5973 0)
(0.689055 -25.588 0)
(0.512715 -25.5946 0)
(0.376861 -25.6093 0)
(0.272418 -25.626 0)
(0.191467 -25.6418 0)
(0.127717 -25.655 0)
(0.0757835 -25.6644 0)
(0.0309732 -25.6696 0)
(-0.0107959 -25.6702 0)
(-0.0536042 -25.666 0)
(-0.101592 -25.657 0)
(-0.15963 -25.6429 0)
(-0.23359 -25.6243 0)
(-0.331317 -25.6016 0)
(-0.462874 -25.5789 0)
(-0.641419 -25.5613 0)
(-0.885229 -25.5609 0)
(-1.21856 -25.6011 0)
(-1.67342 -25.7268 0)
(-2.28946 -26.0294 0)
(-3.05914 -26.733 0)
(-3.97067 -28.1411 0)
(-2.23311 -32.849 0)
(4.53994 -38.968 0)
(7.30861 -28.6311 0)
(4.91732 -27.336 0)
(3.76463 -26.3119 0)
(2.84502 -25.847 0)
(2.1613 -25.6002 0)
(1.63603 -25.483 0)
(1.2317 -25.4398 0)
(0.921004 -25.4381 0)
(0.683464 -25.4585 0)
(0.502476 -25.488 0)
(0.365203 -25.5207 0)
(0.261443 -25.5509 0)
(0.182125 -25.5765 0)
(0.120639 -25.5969 0)
(0.0712888 -25.6107 0)
(0.0291546 -25.6184 0)
(-0.00976683 -25.6195 0)
(-0.049666 -25.6137 0)
(-0.094568 -25.6012 0)
(-0.149483 -25.5807 0)
(-0.220359 -25.5528 0)
(-0.315804 -25.5157 0)
(-0.447001 -25.4731 0)
(-0.628885 -25.4272 0)
(-0.884123 -25.3868 0)
(-1.24498 -25.3706 0)
(-1.76053 -25.4158 0)
(-2.52203 -25.5969 0)
(-3.56952 -26.2041 0)
(-5.83101 -27.0325 0)
(-3.75127 -35.8171 0)
)
;

boundaryField
{
    left
    {
        type            calculated;
        value           nonuniform List<vector> 
16
(
(0 -28.144 0)
(0 -28.1645 0)
(0 -28.2065 0)
(0 -28.272 0)
(0 -28.3644 0)
(0 -28.4887 0)
(0 -28.6522 0)
(0 -28.8658 0)
(0 -29.1453 0)
(0 -29.5147 0)
(0 -30.0117 0)
(0 -30.6968 0)
(0 -31.6714 0)
(0 -33.1126 0)
(0 -35.3424 0)
(0 -38.968 0)
)
;
    }
    right
    {
        type            calculated;
        value           nonuniform List<vector> 
16
(
(0 -27.3243 0)
(0 -27.3379 0)
(0 -27.3658 0)
(0 -27.4096 0)
(0 -27.4718 0)
(0 -27.5564 0)
(0 -27.6691 0)
(0 -27.8185 0)
(0 -28.0173 0)
(0 -28.2852 0)
(0 -28.6526 0)
(0 -29.1698 0)
(0 -29.9212 0)
(0 -31.0566 0)
(0 -32.849 0)
(0 -35.8171 0)
)
;
    }
    interface
    {
        type            calculated;
        value           nonuniform List<vector> 
32
(
(4.53994 -41.2295 0)
(7.30861 -27.7361 0)
(4.91732 -27.0157 0)
(3.76463 -26.0345 0)
(2.84502 -25.6417 0)
(2.1613 -25.4392 0)
(1.63603 -25.3555 0)
(1.2317 -25.338 0)
(0.921004 -25.3563 0)
(0.683464 -25.3924 0)
(0.502476 -25.4337 0)
(0.365203 -25.4759 0)
(0.261443 -25.5129 0)
(0.182125 -25.5435 0)
(0.120639 -25.5676 0)
(0.0712888 -25.5836 0)
(0.0291546 -25.5926 0)
(-0.00976683 -25.5939 0)
(-0.049666 -25.5874 0)
(-0.094568 -25.5732 0)
(-0.149483 -25.5495 0)
(-0.220359 -25.5169 0)
(-0.315804 -25.4723 0)
(-0.447001 -25.4196 0)
(-0.628885 -25.3589 0)
(-0.884123 -25.297 0)
(-1.24498 -25.25 0)
(-1.76053 -25.2494 0)
(-2.52203 -25.3541 0)
(-3.56952 -25.8956 0)
(-5.83101 -26.1839 0)
(-3.75127 -37.6803 0)
)
;
    }
    bottom
    {
        type            calculated;
        value           nonuniform List<vector> 
32
(
(0.0108274 -28.139 0)
(0.0305929 -28.0523 0)
(0.045495 -27.8942 0)
(0.0542544 -27.6884 0)
(0.0572328 -27.4602 0)
(0.055711 -27.2305 0)
(0.0512136 -27.0145 0)
(0.0451238 -26.8208 0)
(0.038448 -26.6535 0)
(0.0318692 -26.5132 0)
(0.0257783 -26.3986 0)
(0.0203506 -26.307 0)
(0.0156202 -26.2357 0)
(0.0115338 -26.182 0)
(0.00798685 -26.1435 0)
(0.00484718 -26.1181 0)
(0.00196893 -26.1047 0)
(-0.000798936 -26.1024 0)
(-0.00360733 -26.1111 0)
(-0.00660179 -26.1313 0)
(-0.00991426 -26.1639 0)
(-0.0136485 -26.2106 0)
(-0.0178544 -26.2731 0)
(-0.0224884 -26.3534 0)
(-0.0273556 -26.453 0)
(-0.0320392 -26.5722 0)
(-0.0358351 -26.7093 0)
(-0.0377354 -26.8589 0)
(-0.0365364 -27.0112 0)
(-0.0311608 -27.1512 0)
(-0.0212121 -27.2605 0)
(-0.007554 -27.3209 0)
)
;
    }
    defaultFaces
    {
        type            empty;
    }
}


// ************************************************************************* //
