/*--------------------------------*- C++ -*----------------------------------*\
| =========                 |                                                 |
| \\      /  F ield         | OpenFOAM: The Open Source CFD Toolbox           |
|  \\    /   O peration     | Version:  2006                                  |
|   \\  /    A nd           | Website:  www.openfoam.com                      |
|    \\/     M anipulation  |                                                 |
\*---------------------------------------------------------------------------*/
FoamFile
{
    version     2.0;
    format      ascii;
    class       surfaceScalarField;
    location    "0.6";
    object      meshPhi;
}
// * * * * * * * * * * * * * * * * * * * * * * * * * * * * * * * * * * * * * //

dimensions      [0 3 -1 0 0 0 0];
oriented        oriented;


internalField   nonuniform List<scalar> 
5457
(
0.000126929
-5.98876e-08
0.00024509
-1.5596e-07
0.000359077
-1.96504e-07
0.000472515
-1.574e-07
0.000587362
-1.09748e-08
0.000704231
2.74899e-07
0.000822532
7.35165e-07
0.000940454
1.40339e-06
0.00105507
2.30545e-06
0.00116257
3.45214e-06
0.00125859
4.8317e-06
0.0013387
6.40751e-06
0.00139806
8.1295e-06
0.00143144
9.89321e-06
0.00143543
1.15255e-05
0.00140863
1.28603e-05
0.00135099
1.37453e-05
0.00126461
1.40329e-05
0.00115384
1.3616e-05
0.00102487
1.24462e-05
0.000885053
1.05404e-05
0.000742092
7.97082e-06
0.000603093
4.83777e-06
0.00047385
1.22352e-06
0.000358538
-2.87347e-06
0.000260066
-7.60703e-06
0.000181133
-1.32464e-05
0.000125571
-1.96815e-05
9.78644e-05
-2.51108e-05
-1.74745e-05
0.000126341
-1.22162e-07
0.000244102
-3.19167e-07
0.000357839
-4.05931e-07
0.000471175
-3.35095e-07
0.000586075
-5.1909e-08
0.000703177
5.07565e-07
0.000821969
1.41326e-06
0.000940692
2.73275e-06
0.00105644
4.51848e-06
0.00116538
6.79268e-06
0.00126307
9.53078e-06
0.00134548
1.26532e-05
0.00140805
1.6079e-05
0.00144468
1.96117e-05
0.00145182
2.28758e-05
0.00142846
2.55362e-05
0.00137427
2.7299e-05
0.00129115
2.78639e-05
0.00118327
2.70145e-05
0.00105668
2.46581e-05
0.00091867
2.08433e-05
0.000776904
1.57495e-05
0.000638472
9.64498e-06
0.000509038
2.81568e-06
0.00039236
-4.55479e-06
0.00029066
-1.26075e-05
0.000205946
-2.22169e-05
0.000143552
-3.52867e-05
0.000113932
-5.32994e-05
-7.95522e-05
0.000126066
-1.87564e-07
0.0002437
-4.91926e-07
0.00035744
-6.32544e-07
0.00047098
-5.40132e-07
0.000586286
-1.34058e-07
0.000704023
6.80305e-07
0.000823842
2.00706e-06
0.000944084
3.94726e-06
0.00106186
6.57934e-06
0.00117332
9.93643e-06
0.00127373
1.39779e-05
0.00136044
1.86117e-05
0.0014293
2.3711e-05
0.00147171
2.89127e-05
0.0014845
3.36721e-05
0.00146778
3.75412e-05
0.00142051
4.00686e-05
0.00134422
4.07878e-05
0.00124272
3.93748e-05
0.0011217
3.5702e-05
0.000988189
2.98759e-05
0.000849657
2.22366e-05
0.000713061
1.332e-05
0.000583797
3.80377e-06
0.000464789
-5.56529e-06
0.000356473
-1.4168e-05
0.000257481
-2.20193e-05
0.000168928
-3.06566e-05
0.000101025
-4.31267e-05
-7.32603e-05
0.000126199
-2.56537e-07
0.000244028
-6.75714e-07
0.000358039
-8.79325e-07
0.000472122
-7.77782e-07
0.000588212
-2.66398e-07
0.000706969
7.78083e-07
0.000828333
2.49214e-06
0.000950787
5.00778e-06
0.00107146
8.42663e-06
0.00118656
1.27933e-05
0.00129123
1.80636e-05
0.00138424
2.41406e-05
0.00146102
3.07691e-05
0.00151125
3.74049e-05
0.00153273
4.34497e-05
0.00152593
4.83311e-05
0.00148914
5.13881e-05
0.00142341
5.19997e-05
0.00133205
4.9739e-05
0.0012202
4.44509e-05
0.00109442
3.63222e-05
0.000961901
2.58999e-05
0.000829469
1.40651e-05
0.000702525
2.01886e-06
0.000583504
-8.64375e-06
0.000470947
-1.57403e-05
0.000359366
-1.6138e-05
0.000244941
-5.9002e-06
0.000137772
1.65417e-05
4.13585e-05
0.000126506
-3.29803e-07
0.000244656
-8.72859e-07
0.000358993
-1.15079e-06
0.000473846
-1.05566e-06
0.000591031
-4.61091e-07
0.000711079
7.81653e-07
0.000834422
2.83798e-06
0.000959728
5.86708e-06
0.00108416
9.9915e-06
0.00120414
1.5266e-05
0.00131528
2.16436e-05
0.00141595
2.89725e-05
0.0015008
3.68799e-05
0.00156135
4.47454e-05
0.00159547
5.18798e-05
0.00160208
5.75031e-05
0.00157941
6.07522e-05
0.00152805
6.08651e-05
0.00145079
5.73105e-05
0.001352
4.98975e-05
0.00123767
3.88933e-05
0.00111465
2.50662e-05
0.00098986
9.65072e-06
0.000869656
-5.68367e-06
0.000757812
-1.87128e-05
0.00065444
-2.61776e-05
0.000555535
-2.25237e-05
0.000461008
1.00279e-06
0.000397737
4.98739e-05
0.000127918
0.000126996
-4.07936e-07
0.000245592
-1.0849e-06
0.000360172
-1.44981e-06
0.000476011
-1.3793e-06
0.000594626
-7.28262e-07
0.000716155
6.74305e-07
0.00084185
3.01901e-06
0.000970573
6.48836e-06
0.00109955
1.12232e-05
0.0012254
1.72811e-05
0.00134427
2.45942e-05
0.00145351
3.29474e-05
0.00154811
4.19068e-05
0.00162193
5.07834e-05
0.00167175
5.87128e-05
0.00169512
6.47013e-05
0.00169028
6.77e-05
0.00165726
6.67894e-05
0.00159848
6.13239e-05
0.00151767
5.10421e-05
0.00141995
3.6247e-05
0.00131123
1.78965e-05
0.00119902
-2.48293e-06
0.00109206
-2.29906e-05
0.000997786
-4.14792e-05
0.000923198
-5.5457e-05
0.000875673
-6.15153e-05
0.000867361
-5.44025e-05
0.000951116
-3.28451e-05
1.45022e-05
0.000127385
-4.91499e-07
0.000246558
-1.3133e-06
0.00036164
-1.77842e-06
0.000478762
-1.75184e-06
0.000598927
-1.07186e-06
0.000721934
4.49391e-07
0.000850344
3.02054e-06
0.000983026
6.84656e-06
0.00111711
1.20822e-05
0.00124955
1.87785e-05
0.00137682
2.6845e-05
0.00149612
3.60167e-05
0.00160308
4.57835e-05
0.00169239
5.53522e-05
0.00176017
6.36942e-05
0.0018035
6.9609e-05
0.00182026
7.18184e-05
0.00180955
6.9223e-05
0.00177398
6.1074e-05
0.00171745
4.6989e-05
0.00164357
2.71619e-05
0.00155705
2.58434e-06
0.00146565
-2.49843e-05
0.00138091
-5.35568e-05
0.00131569
-8.17481e-05
0.00128536
-0.000109372
0.00131157
-0.000138462
0.00142115
-0.000173155
0.00166897
-0.000218967
-0.000268166
0.00012783
-5.79899e-07
0.000247532
-1.55733e-06
0.000363487
-2.13721e-06
0.000481917
-2.17661e-06
0.000603554
-1.4976e-06
0.000728567
1.01478e-07
0.000860089
2.83349e-06
0.000996745
6.92125e-06
0.00113622
1.25357e-05
0.00127594
1.97156e-05
0.00141256
2.83429e-05
0.00154347
3.81002e-05
0.00166459
4.8391e-05
0.00177114
5.83048e-05
0.0018592
6.66488e-05
0.00192578
7.20128e-05
0.00196835
7.28074e-05
0.0019838
6.77067e-05
0.00197612
5.59175e-05
0.00195057
3.6894e-05
0.00190888
1.05659e-05
0.0018562
-2.23002e-05
0.00179907
-5.99926e-05
0.00174941
-0.000100373
0.00172598
-0.000142588
0.00174987
-0.000188409
0.00184726
-0.00024316
0.00204808
-0.000314857
0.00237398
-0.000405455
-0.000494518
0.000128834
-6.72523e-07
0.000248696
-1.81505e-06
0.000365621
-2.5249e-06
0.000485063
-2.65554e-06
0.000608115
-2.01392e-06
0.000736386
-3.81917e-07
0.000871273
2.45611e-06
0.00101116
6.71824e-06
0.00115627
1.25796e-05
0.00130411
2.00788e-05
0.00145088
2.90638e-05
0.00159447
3.91535e-05
0.0017311
4.96634e-05
0.00185649
5.9558e-05
0.00196692
6.74778e-05
0.00206012
7.1837e-05
0.0021316
7.06957e-05
0.00217674
6.22224e-05
0.00220355
4.54888e-05
0.00221615
2.0048e-05
0.00221538
-1.44719e-05
0.00220891
-5.78227e-05
0.00220172
-0.000108648
0.00220398
-0.000164752
0.00223804
-0.000224932
0.00232685
-0.000290613
0.00248809
-0.000365127
0.00273589
-0.000450122
0.00306028
-0.00053521
-0.000582206
0.0001298
-7.6963e-07
0.000249839
-2.08816e-06
0.000368363
-2.94444e-06
0.000488603
-3.18523e-06
0.000612655
-2.60975e-06
0.000744284
-9.97043e-07
0.000882638
1.88298e-06
0.00102614
6.23803e-06
0.00117732
1.22181e-05
0.00133355
1.98615e-05
0.00149094
2.89894e-05
0.0016478
3.91505e-05
0.00180076
4.95656e-05
0.00194598
5.90674e-05
0.00208007
6.61173e-05
0.00220158
6.89159e-05
0.00230348
6.53165e-05
0.00238499
5.29274e-05
0.00245607
3.0043e-05
0.00251263
-3.62143e-06
0.00256082
-4.82374e-05
0.00261205
-0.000104395
0.00266785
-0.000171279
0.00273916
-0.000246594
0.00284946
-0.000328258
0.00301745
-0.000414863
0.00324657
-0.000503691
0.00353342
-0.000586476
0.00387559
-0.00064755
-0.000655431
0.000130394
-8.71938e-07
0.000251275
-2.37797e-06
0.000371614
-3.39193e-06
0.000492193
-3.75535e-06
0.000617143
-3.27322e-06
0.000751354
-1.73391e-06
0.00089329
1.10485e-06
0.00104201
5.45254e-06
0.00119952
1.14341e-05
0.00136373
1.90608e-05
0.00153187
2.81193e-05
0.0017022
3.80921e-05
0.0018718
4.81001e-05
0.00203735
5.68403e-05
0.00219588
6.25852e-05
0.002346
6.32607e-05
0.00248221
5.6524e-05
0.00260949
3.97322e-05
0.00272962
1.02123e-05
0.00283072
-3.29041e-05
0.00293586
-8.95707e-05
0.0030576
-0.000160959
0.00318776
-0.000246878
0.00334334
-0.000344911
0.0035494
-0.000451866
0.00381577
-0.000562519
0.00413416
-0.000667295
0.0045003
-0.000751112
0.00494131
-0.000803259
-0.000808889
0.000131111
-9.77372e-07
0.000253032
-2.67747e-06
0.000374464
-3.85501e-06
0.000495374
-4.3617e-06
0.000621852
-4.01421e-06
0.000758428
-2.59392e-06
0.00090389
1.36593e-07
0.00105816
4.37673e-06
0.00122195
1.02388e-05
0.00139404
1.76958e-05
0.00157282
2.64853e-05
0.00175656
3.60237e-05
0.00194286
4.53325e-05
0.00212903
5.29753e-05
0.00231281
5.70431e-05
0.00249297
5.52109e-05
0.00266785
4.48332e-05
0.00284392
2.30609e-05
0.00300897
-1.31886e-05
0.0031551
-6.59544e-05
0.00332766
-0.000136116
0.0035316
-0.000224903
0.0037473
-0.000332406
0.00400142
-0.000456669
0.00432333
-0.000593915
0.00471518
-0.000736007
0.00516341
-0.000868567
0.005679
-0.000973099
0.0062925
-0.00104013
-0.00104841
0.00013182
-1.08298e-06
0.00025466
-2.98079e-06
0.000376903
-4.33095e-06
0.000499083
-4.9993e-06
0.000626998
-4.82005e-06
0.000765529
-3.56324e-06
0.000914404
-9.96578e-07
0.00107369
3.05453e-06
0.00124363
8.67976e-06
0.00142366
1.58155e-05
0.00161277
2.415e-05
0.00180963
3.30305e-05
0.00201238
4.13829e-05
0.00221911
4.76454e-05
0.00242831
4.97412e-05
0.00263935
4.51183e-05
0.00285275
3.08473e-05
0.0030741
3.77894e-06
0.00328077
-3.93745e-05
0.0034775
-0.0001017
0.00372544
-0.000185613
0.00401637
-0.000292601
0.00432519
-0.000422905
0.00468964
-0.00057571
0.00514632
-0.000748111
0.00569424
-0.000931628
0.00632264
-0.00111165
0.00706622
-0.00126977
0.00791735
-0.00138466
-0.00140333
0.000132428
-1.18981e-06
0.000256133
-3.2868e-06
0.00037921
-4.81656e-06
0.000503726
-5.65762e-06
0.000632796
-5.6615e-06
0.00077225
-4.60819e-06
0.000924163
-2.26844e-06
0.00108821
1.51761e-06
0.00126418
6.80369e-06
0.00145183
1.34825e-05
0.00165073
2.1194e-05
0.00186008
2.92196e-05
0.00207861
3.63977e-05
0.00230513
4.10554e-05
0.00253884
4.09712e-05
0.00277962
3.33992e-05
0.00302886
1.51537e-05
0.00329162
-1.72416e-05
0.00354123
-6.72753e-05
0.00379312
-0.000138762
0.00411568
-0.000235504
0.00449124
-0.000359617
0.0048938
-0.000511693
0.00537157
-0.000692376
0.00596976
-0.000900871
0.00668948
-0.00113128
0.0075312
-0.00137495
0.00856573
-0.00162453
0.00973791
-0.00184613
-0.00190667
0.000133398
-1.29842e-06
0.000257539
-3.59488e-06
0.000381248
-5.31234e-06
0.000508621
-6.34237e-06
0.000639594
-6.53576e-06
0.000779405
-5.70394e-06
0.000933131
-3.64637e-06
0.00110138
-2.06431e-07
0.00128323
4.64292e-06
0.00147805
1.07407e-05
0.00168602
1.76749e-05
0.00190696
2.46685e-05
0.00214015
3.04845e-05
0.00238507
3.33586e-05
0.00264155
3.0957e-05
0.00290991
2.03881e-05
0.00319218
-1.74103e-06
0.00349287
-3.92424e-05
0.00378545
-9.56604e-05
0.00409196
-0.000175201
0.0044821
-0.000282877
0.00493385
-0.000421389
0.00542217
-0.000591589
0.00600147
-0.000795389
0.00672232
-0.00103379
0.00758813
-0.00130315
0.00860505
-0.00160002
0.00983277
-0.00192361
0.0111159
-0.00222671
-0.00272678
0.000122534
-5.65583e-05
0.000219629
-6.25846e-05
0.000424579
-9.66309e-05
0.000731268
-0.000137767
0.00110262
-0.000175165
0.00149491
-0.00020283
0.00186939
-0.000218829
0.00219763
-0.000223669
0.00246398
-0.00021915
0.00266295
-0.00020794
0.00279406
-0.000192679
0.00286084
-0.000175277
0.00286889
-0.000157079
0.00282452
-0.000138974
0.00273477
-0.000121409
0.00260658
-0.000104796
0.00244638
-8.94789e-05
0.00226531
-7.57363e-05
0.0020722
-6.35705e-05
0.00186768
-5.26796e-05
0.00165844
-4.31753e-05
0.00145236
-3.51063e-05
0.00125104
-2.81896e-05
0.00105585
-2.22664e-05
0.00086798
-1.72536e-05
0.000688886
-1.30614e-05
0.000518636
-9.56432e-06
0.000352493
-6.58542e-06
0.000182322
-3.91659e-06
-1.32485e-06
0.000144321
-6.11471e-05
0.000252414
-0.000126165
0.00048767
-0.000210628
0.000824107
-0.000297033
0.00121531
-0.0003688
0.0016167
-0.000419026
0.00199166
-0.000446481
0.00231287
-0.000452693
0.00256741
-0.000440904
0.00275332
-0.00041648
0.00287119
-0.00038465
0.00292546
-0.000349084
0.00292192
-0.000312232
0.00286695
-0.00027554
0.00276809
-0.000240191
0.00263219
-0.000207138
0.00246531
-0.000176836
0.00227888
-0.00014932
0.00208184
-0.000124689
0.00187365
-0.000103287
0.00166149
-8.49729e-05
0.00145382
-6.92051e-05
0.00125138
-5.56054e-05
0.00105535
-4.39536e-05
0.000866983
-3.40826e-05
0.000687753
-2.57717e-05
0.000517673
-1.87898e-05
0.000351857
-1.28871e-05
0.000182106
-7.6621e-06
-2.59417e-06
0.000142404
-0.000147138
0.00032312
-0.000267225
0.00063834
-0.000394558
0.00103488
-0.000512298
0.00146046
-0.000603448
0.00187566
-0.000663254
0.00224974
-0.000692814
0.00255467
-0.000693807
0.00278307
-0.00066917
0.00294203
-0.000627301
0.00303304
-0.000576378
0.00306287
-0.000521509
0.00303636
-0.000465575
0.00295943
-0.00040953
0.00284205
-0.000355788
0.00269083
-0.000306401
0.00251233
-0.000261667
0.00231632
-0.000221397
0.0021091
-0.000185261
0.00189189
-0.00015344
0.00167425
-0.000125987
0.00146326
-0.000102486
0.00125803
-8.23236e-05
0.0010597
-6.50381e-05
0.000870058
-5.04323e-05
0.00069013
-3.81722e-05
0.000519075
-2.78582e-05
0.000352216
-1.91061e-05
0.000181938
-1.13485e-05
-3.83963e-06
0.000215267
-0.000424039
0.00052149
-0.000551832
0.000941565
-0.000685461
0.00140121
-0.000802336
0.0018556
-0.000888757
0.00227801
-0.000941036
0.00263898
-0.000959477
0.00291186
-0.000944918
0.0031013
-0.000901604
0.00322057
-0.000839072
0.00327157
-0.000766324
0.00326439
-0.00068977
0.00320568
-0.000613668
0.00309818
-0.000539126
0.00295318
-0.000467806
0.00277939
-0.00040236
0.00258422
-0.000343826
0.0023752
-0.00029183
0.00215432
-0.000245265
0.00192425
-0.00020345
0.00169774
-0.000166572
0.0014812
-0.000135085
0.00127157
-0.00010847
0.00106917
-8.56945e-05
0.000876911
-6.63539e-05
0.000695517
-5.02019e-05
0.00052269
-3.67083e-05
0.00035391
-2.52069e-05
0.000182313
-1.49671e-05
-5.0622e-06
0.00055532
-0.00084025
0.000966585
-0.000935009
0.00145464
-0.00104747
0.00194324
-0.00114291
0.00240089
-0.00120954
0.00280785
-0.00124123
0.00313028
-0.00123648
0.00335532
-0.00119735
0.00349938
-0.00113101
0.00357186
-0.00104675
0.00357409
-0.000952219
0.00351511
-0.000852486
0.00341444
-0.000753962
0.00327177
-0.000661086
0.00309246
-0.000573622
0.00288961
-0.000493014
0.00267235
-0.000421231
0.00244679
-0.000357808
0.00221136
-0.000301102
0.00196792
-0.000249935
0.0017297
-0.000204556
0.00150445
-0.000165777
0.00128952
-0.000133247
0.00108272
-0.000105581
0.000886352
-8.18358e-05
0.000702098
-6.18236e-05
0.000527219
-4.51752e-05
0.000356439
-3.1047e-05
0.000183252
-1.84515e-05
-6.24192e-06
0.00121411
-0.00121034
0.00165869
-0.00129207
0.00215422
-0.00139951
0.00263691
-0.00148723
0.00307231
-0.00154015
0.00343313
-0.00154896
0.00369758
-0.00151594
0.00386851
-0.0014491
0.00395596
-0.00135573
0.0039755
-0.00124606
0.00392704
-0.00112993
0.003809
-0.00100928
0.00365545
-0.000889052
0.00347056
-0.000776576
0.00325167
-0.000672365
0.00301461
-0.000576894
0.00277203
-0.00049225
0.00252796
-0.0004179
0.002277
-0.00035171
0.00201883
-0.000292017
0.00176658
-0.000238995
0.00152977
-0.000193607
0.00130882
-0.000155613
0.00109905
-0.000123641
0.000898901
-9.62939e-05
0.00071046
-7.29427e-05
0.000532334
-5.3254e-05
0.000359209
-3.65707e-05
0.000184406
-2.17511e-05
-7.36263e-06
0.00201784
-0.00141634
0.00246496
-0.00156296
0.00295768
-0.00170923
0.00343231
-0.00181754
0.00383628
-0.00186881
0.00413764
-0.00185856
0.00433815
-0.00179745
0.00444482
-0.00170007
0.00445633
-0.00157531
0.00440848
-0.00143557
0.00430735
-0.0012951
0.00413555
-0.00115537
0.0039245
-0.00101659
0.00368945
-0.000885451
0.00342573
-0.000764476
0.00315038
-0.000654171
0.00288145
-0.000557055
0.00261801
-0.000472838
0.00235027
-0.000398472
0.00207581
-0.000331549
0.00180753
-0.000271724
0.00155745
-0.000219952
0.00132849
-0.000176424
0.00111509
-0.000140061
0.000912607
-0.000109382
0.000720793
-8.32536e-05
0.000538177
-6.09318e-05
0.000361854
-4.17993e-05
0.000185683
-2.48343e-05
-8.4097e-06
0.0027707
-0.00159549
0.00327458
-0.00183153
0.00381378
-0.00202964
0.00429808
-0.00216019
0.00466914
-0.00220415
0.00491105
-0.00216929
0.00504002
-0.0020763
0.00506444
-0.00194443
0.00498726
-0.00178573
0.00485741
-0.0016147
0.00469678
-0.00144815
0.00447491
-0.00128855
0.00420801
-0.00113242
0.00392144
-0.000984765
0.00361123
-0.000848862
0.00329545
-0.000725038
0.00299801
-0.000616336
0.00271252
-0.000522876
0.00242588
-0.000440848
0.00213625
-0.000367474
0.00185379
-0.000302022
0.00159084
-0.000244866
0.00135142
-0.000196269
0.00113109
-0.000155537
0.000925494
-0.000121409
0.000731625
-9.26197e-05
0.000545032
-6.80237e-05
0.000364877
-4.67144e-05
0.000186993
-2.77265e-05
-9.38365e-06
0.00350065
-0.00194216
0.00412586
-0.00221576
0.00474664
-0.00242873
0.00523831
-0.00254697
0.0055596
-0.00255779
0.00572541
-0.00248073
0.00576753
-0.00234546
0.00569906
-0.002175
0.00552955
-0.00198168
0.00531372
-0.0017801
0.00508746
-0.00158813
0.00481195
-0.00140837
0.0044913
-0.00123544
0.00415607
-0.00107305
0.00380178
-0.00092421
0.0034467
-0.000788848
0.00311843
-0.000670041
0.00280728
-0.000567946
0.00249885
-0.000478383
0.00219477
-0.000398716
0.00190158
-0.00032831
0.00162802
-0.000266896
0.00137771
-0.000214267
0.00114858
-0.000169796
0.00093809
-0.000132492
0.000741666
-0.000101163
0.000551877
-7.44471e-05
0.000368323
-5.1206e-05
0.000188316
-3.04064e-05
-1.02917e-05
0.00440184
-0.00246228
0.00514499
-0.00273141
0.00580878
-0.00291111
0.00626185
-0.002974
0.00649329
-0.00292242
0.00655029
-0.00278548
0.00648646
-0.00259833
0.00632004
-0.00238529
0.00605848
-0.0021571
0.00575938
-0.00192653
0.0054663
-0.00171084
0.00513534
-0.00151225
0.00476365
-0.00132411
0.00438356
-0.00114903
0.00398966
-0.000989483
0.00359859
-0.000844735
0.00323907
-0.000717368
0.00290117
-0.000607645
0.00257017
-0.000511441
0.00225059
-0.000426138
0.00194697
-0.0003512
0.00166408
-0.000286052
0.00140424
-0.000230084
0.00116685
-0.00018253
0.000950856
-0.000142496
0.000750914
-0.000108888
0.000558067
-8.02513e-05
0.000371871
-5.52807e-05
0.000190028
-3.28594e-05
-1.11308e-05
0.00559581
-0.00306198
0.00639122
-0.00331738
0.00700199
-0.00342705
0.00734102
-0.00340398
0.00743334
-0.00327139
0.00735212
-0.00306557
0.00716713
-0.00282326
0.00689937
-0.00256739
0.00655005
-0.00230615
0.0061724
-0.00204949
0.00581466
-0.00181267
0.0054321
-0.00159755
0.00501466
-0.00139675
0.00459515
-0.00121154
0.00416891
-0.001044
0.00374791
-0.000892716
0.0033578
-0.00075877
0.00299303
-0.000642312
0.00264077
-0.000540281
0.00230536
-0.000450265
0.00199018
-0.000371422
0.00169785
-0.000302951
0.00142959
-0.000244046
0.00118497
-0.000193846
0.000963205
-0.00015144
0.0007592
-0.000115771
0.000563929
-8.54245e-05
0.000375809
-5.89732e-05
0.00019213
-3.51123e-05
-1.19001e-05
0.00706846
-0.00371428
0.00781204
-0.00391881
0.00825509
-0.00392069
0.00840443
-0.00379157
0.00831935
-0.00357213
0.00808501
-0.0032989
0.00777572
-0.0030057
0.00741099
-0.00271196
0.00698611
-0.00242338
0.00654037
-0.00214652
0.0061198
-0.00189218
0.00569061
-0.00166253
0.0052361
-0.001452
0.00478389
-0.00125984
0.00433304
-0.00108689
0.00389033
-0.000931625
0.00347308
-0.000793497
0.003082
-0.000672006
0.00270991
-0.000565277
0.00235923
-0.000471421
0.0020322
-0.000389305
0.00173034
-0.000317978
0.00145414
-0.000256531
0.00120291
-0.000204046
0.000975286
-0.000159566
0.00076686
-0.000122028
0.000569859
-9.01173e-05
0.000380533
-6.2363e-05
0.000194573
-3.72188e-05
-1.26235e-05
0.00875369
-0.00438534
0.00928823
-0.0044727
0.00944165
-0.0043288
0.00935081
-0.00408819
0.00908133
-0.0037922
0.008705
-0.00346586
0.0082832
-0.00313389
0.00783346
-0.00281092
0.00735079
-0.00250232
0.00685607
-0.00221259
0.00637995
-0.00194712
0.00590806
-0.00170733
0.00542513
-0.00149035
0.00494664
-0.00129422
0.0044754
-0.00111806
0.00401601
-0.00096035
0.00357797
-0.000819857
0.00316485
-0.000695461
0.00277524
-0.000585687
0.00241054
-0.000489075
0.0020723
-0.000404474
0.00176142
-0.000330892
0.00147787
-0.00026739
0.00122062
-0.000213029
0.000987662
-0.00016683
0.000775017
-0.000127717
0.000576259
-9.44261e-05
0.00038583
-6.54842e-05
0.000197359
-3.91723e-05
-1.32999e-05
0.0105248
-0.00497057
0.010634
-0.0048649
0.0104174
-0.00457427
0.0100854
-0.00424628
0.00966361
-0.00390078
0.00918401
-0.00354665
0.00867677
-0.00319593
0.00815824
-0.00285758
0.00763188
-0.00253824
0.0071073
-0.00224295
0.00659413
-0.00197425
0.00608803
-0.00173149
0.00558226
-0.00151242
0.00508288
-0.00131515
0.0045939
-0.00113809
0.00411963
-0.000979585
0.00366589
-0.000838123
0.00323645
-0.000712377
0.00283271
-0.000601009
0.00245627
-0.000502763
0.0021084
-0.000416554
0.00178966
-0.000341413
0.00149974
-0.000276417
0.00123728
-0.000220639
0.000999887
-0.000173103
0.000783653
-0.000132735
0.000582808
-9.82926e-05
0.000390885
-6.8294e-05
0.000200066
-4.09295e-05
-1.39112e-05
0.0119077
-0.00520893
0.0115672
-0.00484151
0.0110733
-0.00454974
0.010574
-0.00422259
0.0100609
-0.00387922
0.00952633
-0.00353132
0.00896413
-0.00318514
0.00839066
-0.00284707
0.00782801
-0.0025278
0.0072868
-0.00223602
0.00675717
-0.00197281
0.00623011
-0.00173436
0.00570703
-0.00151811
0.00519202
-0.00132297
0.0046891
-0.00114749
0.00420241
-0.000990072
0.00373652
-0.000849191
0.00329515
-0.000723502
0.00288073
-0.000611774
0.00249512
-0.000512893
0.00213955
-0.000425875
0.00181443
-0.000349815
0.00151925
-0.00028384
0.00125246
-0.000227058
0.00101141
-0.000178517
0.000792151
-0.000137161
0.000589095
-0.00010176
0.000395383
-7.08305e-05
0.000202469
-4.25154e-05
-1.4463e-05
0.000139445
-1.40973e-06
0.000268907
-3.91578e-06
0.000398032
-5.83628e-06
0.000532537
-7.0712e-06
0.000671352
-7.46904e-06
0.000817844
-6.86815e-06
0.000978244
-5.11661e-06
0.00115579
-2.09425e-06
0.00135016
2.20604e-06
0.0015595
7.59282e-06
0.00178395
1.36074e-05
0.00202417
1.94175e-05
0.00227999
2.37234e-05
0.00255149
2.4696e-05
0.00283897
1.99335e-05
0.00314332
6.46275e-06
0.00346853
-1.92305e-05
0.00381586
-6.10605e-05
0.00415937
-0.000122596
0.00453033
-0.000208545
0.00499499
-0.000324509
0.00552744
-0.000473048
0.00610704
-0.000655131
0.00678709
-0.00087295
0.0076134
-0.0011268
0.00858635
-0.0014117
0.00970025
-0.00172072
0.0109444
-0.00204256
0.0120724
-0.00232236
-0.00243617
0.0125253
0.00014304
-1.52643e-06
0.000276812
-4.25753e-06
0.000409895
-6.39389e-06
0.000548554
-7.8463e-06
0.000693266
-8.4766e-06
0.000846028
-8.1405e-06
0.00101196
-6.72868e-06
0.00119578
-4.18072e-06
0.00139897
-5.20856e-07
0.00161941
4.05294e-06
0.00185673
9.04521e-06
0.00211224
1.35712e-05
0.0023863
1.62926e-05
0.0026794
1.5352e-05
0.00299218
8.33259e-06
0.00332611
-7.74025e-06
0.00368701
-3.63527e-05
0.00407204
-8.12279e-05
0.0044617
-0.000146209
0.00489119
-0.000236398
0.00540993
-0.000356626
0.00599518
-0.000508771
0.00663661
-0.000693848
0.007373
-0.000912821
0.00823201
-0.00116333
0.00920673
-0.00143751
0.0102727
-0.00172336
0.0113729
-0.00200349
0.0123022
-0.00223393
-0.00232353
0.0128244
0.000146453
-1.64525e-06
0.0002845
-4.60532e-06
0.000421462
-6.96265e-06
0.000563525
-8.64562e-06
0.000713127
-9.54282e-06
0.000872509
-9.53326e-06
0.00104555
-8.52971e-06
0.00123628
-6.5034e-06
0.00144688
-3.51695e-06
0.00167666
1.97695e-07
0.00192563
4.11083e-06
0.00219503
7.31269e-06
0.00248557
8.45879e-06
0.002798
5.7059e-06
0.00313313
-3.31983e-06
0.00349268
-2.15142e-05
0.00388154
-5.22191e-05
0.00429801
-9.89839e-05
0.00473488
-0.000165682
0.0052159
-0.00025677
0.00576735
-0.000375801
0.00637966
-0.000524349
0.00705108
-0.000702997
0.00779982
-0.000910722
0.00863496
-0.00114286
0.0095434
-0.00139026
0.01049
-0.00163992
0.0114062
-0.0018737
0.0121546
-0.00205831
-0.00216079
0.0126124
0.000149955
-1.76113e-06
0.000291825
-4.94479e-06
0.000432441
-7.52329e-06
0.000577832
-9.44585e-06
0.000731676
-1.06313e-05
0.000896928
-1.09839e-05
0.0010768
-1.04309e-05
0.00127433
-8.96081e-06
0.00149163
-6.67161e-06
0.00172947
-3.84132e-06
0.00198861
-1.02185e-06
0.0022701
8.82098e-07
0.00257485
5.5143e-07
0.00290373
-3.79736e-06
0.0032577
-1.4433e-05
0.0036384
-3.40885e-05
0.00404896
-6.58748e-05
0.00449063
-0.000113103
0.00496359
-0.000179182
0.00547795
-0.000267475
0.00604494
-0.000380589
0.00666453
-0.00051975
0.00733684
-0.000684698
0.00806318
-0.000872816
0.0088405
-0.00107834
0.00965482
-0.00129251
0.0104697
-0.00150301
0.0112232
-0.00169293
0.0118287
-0.00183943
-0.00193525
0.0122021
0.000153343
-1.87285e-06
0.000298677
-5.273e-06
0.000442703
-8.06942e-06
0.000591419
-1.02331e-05
0.000749112
-1.17088e-05
0.000919125
-1.24262e-05
0.00110445
-1.23341e-05
0.00130776
-1.14432e-05
0.00153116
-9.87752e-06
0.00177609
-7.93943e-06
0.00204369
-6.18576e-06
0.00233508
-5.49803e-06
0.00265129
-7.13834e-06
0.00299322
-1.2786e-05
0.00336182
-2.45436e-05
0.00375853
-4.49018e-05
0.00418544
-7.66371e-05
0.00464429
-0.000122639
0.00513616
-0.000185733
0.00566485
-0.00026843
0.00623471
-0.000372448
0.00684631
-0.000498255
0.00749894
-0.000644872
0.00818484
-0.000809143
0.00889215
-0.000985047
0.00960698
-0.00116417
0.0102973
-0.00133554
0.0109138
-0.00148551
0.0114017
-0.00159957
-0.00167783
0.011701
0.000156491
-1.97866e-06
0.000304938
-5.585e-06
0.000452032
-8.59231e-06
0.000603784
-1.09935e-05
0.000764753
-1.27576e-05
0.000938533
-1.3839e-05
0.00112813
-1.42099e-05
0.0013361
-1.39025e-05
0.00156452
-1.30592e-05
0.00181507
-1.19913e-05
0.00208908
-1.12435e-05
0.00238781
-1.16541e-05
0.00271234
-1.44007e-05
0.00306343
-2.10218e-05
0.00344179
-3.34069e-05
0.00384855
-5.37488e-05
0.00428457
-8.44297e-05
0.00475141
-0.000127846
0.00524977
-0.000186224
0.0057797
-0.000261356
0.00634049
-0.000354172
0.00693077
-0.000464466
0.00754927
-0.000590833
0.00818592
-0.000730015
0.0088228
-0.000876147
0.00944406
-0.00102143
0.0100263
-0.0011569
0.010534
-0.00127266
0.0109312
-0.0013594
-0.0014186
0.0111758
0.000159271
-2.07664e-06
0.000310417
-5.87517e-06
0.000460135
-9.08234e-06
0.000614458
-1.17125e-05
0.000778067
-1.37577e-05
0.000954706
-1.51956e-05
0.00114745
-1.60211e-05
0.0013588
-1.62855e-05
0.00159081
-1.6142e-05
0.00184514
-1.58982e-05
0.00212321
-1.60711e-05
0.00242636
-1.74369e-05
0.00275581
-2.10689e-05
0.00311199
-2.83425e-05
0.0034949
-4.09032e-05
0.00390562
-6.06198e-05
0.00434264
-8.94553e-05
0.00480844
-0.000129287
0.00530404
-0.000181794
0.00582494
-0.000248217
0.00636776
-0.000328957
0.00692853
-0.000423325
0.0075044
-0.000529516
0.00808577
-0.000644204
0.00865471
-0.000762228
0.00919486
-0.000877199
0.00968845
-0.000982136
0.0101114
-0.00106996
0.0104401
-0.00113462
-0.00117768
0.0106452
0.000161567
-2.16473e-06
0.000314909
-6.13742e-06
0.000466709
-9.52913e-06
0.000622995
-1.23748e-05
0.00078849
-1.46874e-05
0.000967019
-1.64663e-05
0.00116175
-1.77273e-05
0.00137516
-1.85378e-05
0.00160916
-1.90551e-05
0.00186529
-1.95728e-05
0.00214473
-2.05652e-05
0.00244897
-2.27292e-05
0.00277984
-2.70237e-05
0.00313733
-3.46597e-05
0.00351929
-4.70222e-05
0.00392913
-6.56583e-05
0.00436102
-9.20796e-05
0.00481504
-0.000127627
0.00529915
-0.000173698
0.00580394
-0.000231183
0.00632195
-0.000299912
0.00684865
-0.000378843
0.00737851
-0.000466013
0.00790311
-0.000558361
0.00840806
-0.000651691
0.00887877
-0.000741012
0.00930042
-0.000821063
0.00965686
-0.000886885
0.00993338
-0.000934499
-0.000965376
0.0101085
0.00016327
-2.24079e-06
0.000318213
-6.36545e-06
0.000471456
-9.92195e-06
0.000628977
-1.29643e-05
0.00079547
-1.55242e-05
0.00097479
-1.76196e-05
0.00117029
-1.92852e-05
0.00138446
-2.06036e-05
0.00161888
-2.17312e-05
0.00187493
-2.29397e-05
0.00215278
-2.46473e-05
0.00245393
-2.74454e-05
0.00278266
-3.21783e-05
0.00313931
-3.99377e-05
0.00351576
-5.18069e-05
0.00391689
-6.89142e-05
0.00434067
-9.25401e-05
0.0047781
-0.000123771
0.00524096
-0.000163536
0.00572251
-0.000212281
0.00620925
-0.000269511
0.00669793
-0.000334102
0.00718156
-0.000404254
0.00765221
-0.000477332
0.00809852
-0.000549987
0.00850847
-0.000618439
0.00887043
-0.000678869
0.00917339
-0.000727861
0.00940827
-0.00076282
-0.000785014
0.009559
0.00016428
-2.30276e-06
0.000320138
-6.5531e-06
0.000474091
-1.02503e-05
0.000632012
-1.34654e-05
0.000798474
-1.6246e-05
0.000977246
-1.86229e-05
0.00117219
-2.06484e-05
0.00138591
-2.24243e-05
0.00161939
-2.41029e-05
0.00187428
-2.59354e-05
0.00214891
-2.82712e-05
0.00244212
-3.1533e-05
0.00276275
-3.64472e-05
0.00311504
-4.40681e-05
0.00348441
-5.52528e-05
0.00386916
-7.07317e-05
0.0042785
-9.15585e-05
0.00470068
-0.00011864
0.00513648
-0.000152388
0.00558619
-0.000192852
0.00603728
-0.000239576
0.00648529
-0.000291527
0.00692323
-0.000347096
0.00734319
-0.00040412
0.00773601
-0.000460012
0.00809228
-0.000511984
0.00840323
-0.000557333
0.0086613
-0.000593744
0.00886086
-0.000619541
-0.000635731
0.00898963
0.000164605
-2.34837e-06
0.000320706
-6.69381e-06
0.000474673
-1.05038e-05
0.000632216
-1.38641e-05
0.000797662
-1.68346e-05
0.000974248
-1.94485e-05
0.00116667
-2.17715e-05
0.00137853
-2.39409e-05
0.00160959
-2.61004e-05
0.00186138
-2.84421e-05
0.00213196
-3.12591e-05
0.00241638
-3.48957e-05
0.00272387
-3.99457e-05
0.00306314
-4.72767e-05
0.00342157
-5.76061e-05
0.00379005
-7.15101e-05
0.00417716
-8.9676e-05
0.00457799
-0.000112674
0.0049857
-0.000140757
0.00540014
-0.000173846
0.00581361
-0.000211455
0.00622008
-0.000252661
0.0066129
-0.000296124
0.00698491
-0.000340141
0.00732864
-0.000382773
0.00763677
-0.00042201
0.00790282
-0.000455976
0.00812156
-0.000483125
0.00828946
-0.000502387
-0.000514494
0.00839717
0.000164199
-2.37356e-06
0.000319872
-6.77624e-06
0.000473196
-1.06645e-05
0.000629691
-1.41368e-05
0.000793419
-1.72647e-05
0.000966989
-2.00913e-05
0.00115513
-2.26867e-05
0.00136258
-2.51843e-05
0.00158849
-2.77137e-05
0.00183309
-3.04253e-05
0.00209631
-3.35751e-05
0.00237378
-3.75065e-05
0.002669
-4.26805e-05
0.00298883
-4.96767e-05
0.00332811
-5.90543e-05
0.00367863
-7.13095e-05
0.00404111