/*--------------------------------*- C++ -*----------------------------------*\
| =========                 |                                                 |
| \\      /  F ield         | OpenFOAM: The Open Source CFD Toolbox           |
|  \\    /   O peration     | Version:  2006                                  |
|   \\  /    A nd           | Website:  www.openfoam.com                      |
|    \\/     M anipulation  |                                                 |
\*---------------------------------------------------------------------------*/
FoamFile
{
    version     2.0;
    format      ascii;
    class       pointVectorField;
    location    "0.6";
    object      pointDisplacement;
}
// * * * * * * * * * * * * * * * * * * * * * * * * * * * * * * * * * * * * * //

dimensions      [0 1 0 0 0 0 0];


internalField   nonuniform List<vector> 
5828
(
(0 0 0)
(0.000983166 0 0)
(0.00192981 0 0)
(0.00290281 0 0)
(0.00395436 0 0)
(0.00512234 0 0)
(0.00643377 0 0)
(0.00790572 0 0)
(0.00954496 0 0)
(0.0113473 0 0)
(0.0132967 0 0)
(0.0153632 0 0)
(0.0175025 0 0)
(0.0196545 0 0)
(0.0217444 0 0)
(0.0236842 0 0)
(0.0253752 0 0)
(0.0267128 0 0)
(0.0275929 0 0)
(0.02792 0 0)
(0.0276158 0 0)
(0.0266278 0 0)
(0.0249369 0 0)
(0.0225649 0 0)
(0.0195803 0 0)
(0.0161046 0 0)
(0.0123192 0 0)
(0.00847759 0 0)
(0.00493245 0 0)
(0.00223946 0 0)
(0 0 0)
(0 0 0)
(0.000974915 0 1.69891e-07)
(0.00191504 0 3.43947e-07)
(0.00288244 0 5.53646e-07)
(0.00392872 0 8.55871e-07)
(0.00509177 0 1.34645e-06)
(0.00639876 0 2.17329e-06)
(0.00786706 0 3.55152e-06)
(0.00950385 0 5.7797e-06)
(0.0113055 0 9.257e-06)
(0.0132566 0 1.45023e-05)
(0.0153282 0 2.21717e-05)
(0.0174768 0 3.3073e-05)
(0.0196435 0 4.81744e-05)
(0.0217545 0 6.85963e-05)
(0.023723 0 9.56394e-05)
(0.0254517 0 0.000130793)
(0.0268366 0 0.000175713)
(0.0277744 0 0.000232226)
(0.0281701 0 0.000302327)
(0.0279455 0 0.000388174)
(0.0270479 0 0.000492061)
(0.0254581 0 0.000616394)
(0.0231974 0 0.000763671)
(0.0203344 0 0.00093647)
(0.0169913 0 0.0011374)
(0.013354 0 0.00136879)
(0.00968675 0 0.00163096)
(0.00636075 0 0.00191494)
(0.00394122 0 0.00217668)
(0.00238813 0 0.0024262)
(0 0 0)
(0.000965183 0 3.30038e-07)
(0.00189791 0 6.65112e-07)
(0.00285922 0 1.06493e-06)
(0.00390018 0 1.63944e-06)
(0.00505886 0 2.575e-06)
(0.00636291 0 4.16035e-06)
(0.00783046 0 6.81653e-06)
(0.00946972 0 1.11286e-05)
(0.0112783 0 1.78782e-05)
(0.0132425 0 2.80818e-05)
(0.0153357 0 4.30248e-05)
(0.017517 0 6.42894e-05)
(0.01973 0 9.37768e-05)
(0.0219039 0 0.000133662)
(0.0239554 0 0.000186469)
(0.0257905 0 0.000255096)
(0.0273085 0 0.00034273)
(0.0284083 0 0.000452874)
(0.028997 0 0.000589323)
(0.0289973 0 0.000756128)
(0.0283572 0 0.00095751)
(0.0270571 0 0.00119771)
(0.0251175 0 0.00148077)
(0.0226057 0 0.00181015)
(0.0196438 0 0.00218802)
(0.0164216 0 0.00261364)
(0.0132198 0 0.00307954)
(0.0104309 0 0.00356152)
(0.00860831 0 0.00399795)
(0.00740611 0 0.00432101)
(0 0 0)
(0.000962682 0 4.66462e-07)
(0.00189405 0 9.34833e-07)
(0.00285488 0 1.48762e-06)
(0.00389649 0 2.28132e-06)
(0.00505738 0 3.58399e-06)
(0.00636592 0 5.81304e-06)
(0.00784156 0 9.5794e-06)
(0.00949385 0 1.57329e-05)
(0.0113221 0 2.54064e-05)
(0.0133152 0 4.00727e-05)
(0.0154499 0 6.15926e-05)
(0.0176891 0 9.22545e-05)
(0.0199802 0 0.000134773)
(0.0222563 0 0.000192262)
(0.0244405 0 0.000268356)
(0.0264447 0 0.000367161)
(0.0281728 0 0.000493155)
(0.0295286 0 0.000651218)
(0.0304226 0 0.000846585)
(0.0307803 0 0.00108477)
(0.0305512 0 0.00137136)
(0.0297159 0 0.00171172)
(0.0282938 0 0.00211044)
(0.0263497 0 0.00257046)
(0.0240006 0 0.00309165)
(0.0214269 0 0.00366809)
(0.0189023 0 0.00428157)
(0.0168164 0 0.00488794)
(0.0156789 0 0.00539585)
(0.0148842 0 0.00570749)
(0 0 0)
(0.000961173 0 5.65768e-07)
(0.00189198 0 1.1262e-06)
(0.00285328 0 1.77912e-06)
(0.00389693 0 2.71863e-06)
(0.00506206 0 4.28246e-06)
(0.00637791 0 6.99986e-06)
(0.00786586 0 1.16493e-05)
(0.00953723 0 1.93114e-05)
(0.0113932 0 3.14249e-05)
(0.0134265 0 4.98618e-05)
(0.015618 0 7.69746e-05)
(0.0179354 0 0.000115637)
(0.0203316 0 0.000169218)
(0.0227466 0 0.000241642)
(0.0251108 0 0.000337435)
(0.0273434 0 0.000461589)
(0.0293557 0 0.000619519)
(0.0310578 0 0.000817045)
(0.0323656 0 0.00106031)
(0.0332083 0 0.00135566)
(0.0335375 0 0.00170939)
(0.0333344 0 0.00212714)
(0.0326162 0 0.0026131)
(0.0314439 0 0.00316876)
(0.0299254 0 0.00379089)
(0.0282209 0 0.00446831)
(0.0265633 0 0.00517403)
(0.0253156 0 0.00585063)
(0.0249482 0 0.00638856)
(0.0245052 0 0.00670369)
(0 0 0)
(0.000960558 0 6.17251e-07)
(0.00189156 0 1.21724e-06)
(0.00285417 0 1.9036e-06)
(0.00390114 0 2.89697e-06)
(0.00507233 0 4.58945e-06)
(0.00639773 0 7.60025e-06)
(0.00790092 0 1.28442e-05)
(0.00959584 0 2.15909e-05)
(0.0114869 0 3.55356e-05)
(0.0135705 0 5.68724e-05)
(0.015832 0 8.83356e-05)
(0.0182448 0 0.000133249)
(0.0207702 0 0.000195511)
(0.0233568 0 0.000279634)
(0.0259433 0 0.000390707)
(0.0284575 0 0.000534259)
(0.0308205 0 0.00071621)
(0.0329511 0 0.000942777)
(0.0347724 0 0.00122034)
(0.0362172 0 0.00155536)
(0.0372409 0 0.00195403)
(0.0378244 0 0.00242141)
(0.0379805 0 0.0029604)
(0.0377636 0 0.00357026)
(0.0372685 0 0.00424436)
(0.0366323 0 0.0049671)
(0.0360368 0 0.0057085)
(0.0357846 0 0.00640896)
(0.0363086 0 0.00695121)
(0.0362953 0 0.00730489)
(0 0 0)
(0.000960792 0 6.11907e-07)
(0.00189274 0 1.18971e-06)
(0.00285726 0 1.83174e-06)
(0.00390822 0 2.77172e-06)
(0.00508656 0 4.43864e-06)
(0.00642349 0 7.51768e-06)
(0.00794447 0 1.30241e-05)
(0.00966665 0 2.23731e-05)
(0.011599 0 3.74591e-05)
(0.0137413 0 6.07049e-05)
(0.0160831 0 9.51062e-05)
(0.0186062 0 0.000144307)
(0.0212809 0 0.000212563)
(0.0240654 0 0.000304692)
(0.0269079 0 0.00042602)
(0.0297477 0 0.000582242)
(0.0325173 0 0.000779293)
(0.035147 0 0.00102318)
(0.0375689 0 0.00131975)
(0.0397241 0 0.00167481)
(0.0415698 0 0.00209363)
(0.0430806 0 0.0025797)
(0.0442654 0 0.00313381)
(0.0451712 0 0.00375231)
(0.0458728 0 0.00442478)
(0.0464802 0 0.00513183)
(0.0471355 0 0.00584255)
(0.0480558 0 0.00649997)
(0.0496207 0 0.00698391)
(0.0502012 0 0.00733952)
(0 0 0)
(0.000961551 0 5.42719e-07)
(0.00189482 0 1.02945e-06)
(0.00286185 0 1.54144e-06)
(0.0039175 0 2.31087e-06)
(0.00510393 0 3.78553e-06)
(0.00645396 0 6.69075e-06)
(0.00799508 0 1.21057e-05)
(0.00974758 0 2.15412e-05)
(0.0117245 0 3.70149e-05)
(0.0139301 0 6.10902e-05)
(0.0163603 0 9.69204e-05)
(0.0190047 0 0.000148306)
(0.021843 0 0.00021963)
(0.0248437 0 0.000315762)
(0.027967 0 0.000441951)
(0.0311647 0 0.000603644)
(0.0343831 0 0.000806287)
(0.0375658 0 0.00105511)
(0.0406588 0 0.00135475)
(0.0436155 0 0.00170932)
(0.0463928 0 0.00212185)
(0.0489599 0 0.00259353)
(0.0513174 0 0.00312294)
(0.0534981 0 0.00370276)
(0.0555572 0 0.00431808)
(0.0575675 0 0.00494559)
(0.0596271 0 0.00555123)
(0.0618664 0 0.00607906)
(0.0645638 0 0.00641114)
(0.0658032 0 0.00666224)
(0 0 0)
(0.000962786 0 4.05035e-07)
(0.00189768 0 7.27369e-07)
(0.00286769 0 1.01916e-06)
(0.00392848 0 1.49606e-06)
(0.00512352 0 2.60639e-06)
(0.00648762 0 5.08902e-06)
(0.00805033 0 1.00478e-05)
(0.00983464 0 1.90365e-05)
(0.0118576 0 3.41221e-05)
(0.0141294 0 5.79232e-05)
(0.0166531 0 9.36416e-05)
(0.0194259 0 0.000145066)
(0.0224365 0 0.000216493)
(0.0256652 0 0.000312588)
(0.029085 0 0.000438205)
(0.032662 0 0.000598136)
(0.0363571 0 0.000796845)
(0.0401296 0 0.00103824)
(0.0439422 0 0.00132517)
(0.0477616 0 0.00165898)
(0.0515509 0 0.00203928)
(0.0552843 0 0.00246372)
(0.058948 0 0.00292788)
(0.0625471 0 0.00342143)
(0.0661136 0 0.00392464)
(0.0696753 0 0.0044097)
(0.0732602 0 0.00483954)
(0.076902 0 0.00516007)
(0.0807068 0 0.00527045)
(0.0825013 0 0.00536426)
(0 0 0)
(0.000964552 0 1.96306e-07)
(0.0019012 0 2.79462e-07)
(0.00287451 0 2.59939e-07)
(0.00394064 0 3.21773e-07)
(0.00514431 0 8.94492e-07)
(0.00652305 0 2.70675e-06)
(0.00810801 0 6.85429e-06)
(0.00992439 0 1.48795e-05)
(0.011994 0 2.88327e-05)
(0.0143332 0 5.13009e-05)
(0.0169518 0 8.54116e-05)
(0.0198545 0 0.000134798)
(0.0230401 0 0.000203484)
(0.0265007 0 0.000295692)
(0.0302227 0 0.000415581)
(0.0341873 0 0.000566913)
(0.0383714 0 0.000752667)
(0.0427526 0 0.000974859)
(0.0473115 0 0.00123401)
(0.0520285 0 0.00152808)
(0.0568819 0 0.00185238)
(0.0618532 0 0.00219978)
(0.0669238 0 0.00256078)
(0.072071 0 0.00292219)
(0.0772902 0 0.00326096)
(0.0825481 0 0.0035462)
(0.0877685 0 0.00374239)
(0.0928505 0 0.00380651)
(0.0976649 0 0.00367752)
(0.0998705 0 0.00363172)
(0 0 0)
(0.000966465 0 -8.3833e-08)
(0.00190495 0 -3.14854e-07)
(0.00288214 0 -7.36059e-07)
(0.00395402 0 -1.20582e-06)
(0.00516623 0 -1.33275e-06)
(0.00655873 0 -4.25379e-07)
(0.00816485 0 2.57623e-06)
(0.0100127 0 9.15686e-06)
(0.0121282 0 2.12849e-05)
(0.0145331 0 4.14345e-05)
(0.0172439 0 7.25544e-05)
(0.0202733 0 0.000117994)
(0.0236298 0 0.000181342)
(0.0273174 0 0.000266177)
(0.0313362 0 0.000375718)
(0.035683 0 0.0005124)
(0.0403523 0 0.000677353)
(0.045341 0 0.000870036)
(0.0506481 0 0.00108801)
(0.056272 0 0.00132567)
(0.0622094 0 0.00157324)
(0.0684502 0 0.00181787)
(0.0749794 0 0.00204402)
(0.0817699 0 0.00223345)
(0.0887747 0 0.00236119)
(0.0958677 0 0.00239812)
(0.10284 0 0.00231804)
(0.109403 0 0.00210314)
(0.115153 0 0.0017492)
(0.117689 0 0.00159403)
(0 0 0)
(0.000968421 0 -4.34143e-07)
(0.00190932 0 -1.05247e-06)
(0.0028905 0 -1.95981e-06)
(0.00396762 0 -3.0669e-06)
(0.00518786 0 -4.03864e-06)
(0.00659301 0 -4.2462e-06)
(0.00821869 0 -2.69802e-06)
(0.0100964 0 1.99827e-06)
(0.0122555 0 1.16787e-05)
(0.0147222 0 2.8631e-05)
(0.0175198 0 5.55361e-05)
(0.0206686 0 9.53522e-05)
(0.0241866 0 0.000151105)
(0.0280889 0 0.000225572)
(0.032389 0 0.000320857)
(0.0370993 0 0.000437863)
(0.0422321 0 0.000575668)
(0.0478023 0 0.000730875)
(0.0538287 0 0.00089726)
(0.0603319 0 0.00106528)
(0.0673318 0 0.00121992)
(0.074832 0 0.00134176)
(0.082824 0 0.00140875)
(0.0912979 0 0.00139611)
(0.100175 0 0.00127698)
(0.109227 0 0.0010287)
(0.118093 0 0.000643093)
(0.126244 0 0.000140605)
(0.13294 0 -0.000419036)
(0.135787 0 -0.000666394)
(0 0 0)
(0.000970501 0 -8.51869e-07)
(0.00191416 0 -1.92558e-06)
(0.00289892 0 -3.39359e-06)
(0.00398082 0 -5.23372e-06)
(0.00520864 0 -7.18109e-06)
(0.0066256 0 -8.68452e-06)
(0.0082692 0 -8.851e-06)
(0.0101739 0 -6.41348e-06)
(0.0123722 0 2.91751e-07)
(0.014895 0 1.33086e-05)
(0.0177712 0 3.498e-05)
(0.0210285 0 6.77916e-05)
(0.0246931 0 0.000114113)
(0.0287909 0 0.000175822)
(0.0333475 0 0.000253799)
(0.0383893 0 0.000347306)
(0.043945 0 0.000453254)
(0.0500469 0 0.000565423)
(0.0567324 0 0.000673702)
(0.0640483 0 0.00076375)
(0.0720404 0 0.000815282)
(0.0807275 0 0.000802468)
(0.0901202 0 0.000695935)
(0.100237 0 0.000463637)
(0.110991 0 7.62788e-05)
(0.122089 0 -0.000480791)
(0.133028 0 -0.00119189)
(0.143001 0 -0.00198827)
(0.150811 0 -0.00273966)
(0.15399 0 -0.00307052)
(0 0 0)
(0.000972717 0 -1.33242e-06)
(0.00191921 0 -2.9231e-06)
(0.00290728 0 -5.01794e-06)
(0.00399398 0 -7.67429e-06)
(0.00522872 0 -1.07064e-05)
(0.00665591 0 -1.36517e-05)
(0.00831497 0 -1.57369e-05)
(0.0102427 0 -1.58478e-05)
(0.0124748 0 -1.25274e-05)
(0.0150459 0 -4.01523e-06)
(0.0179901 0 1.16458e-05)
(0.0213411 0 3.64173e-05)
(0.025133 0 7.19626e-05)
(0.0294003 0 0.000119214)
(0.0341793 0 0.000177802)
(0.0395087 0 0.000245348)
(0.0454309 0 0.000316638)
(0.0519939 0 0.000382713)
(0.0592509 0 0.000429954)
(0.0672737 0 0.000439245)
(0.076131 0 0.000385034)
(0.0858585 0 0.000235567)
(0.0964941 0 -4.58389e-05)
(0.108095 0 -0.000499221)
(0.120603 0 -0.0011582)
(0.133723 0 -0.00203225)
(0.146904 0 -0.00308372)
(0.159111 0 -0.00418974)
(0.168512 0 -0.00513225)
(0.172208 0 -0.00552566)
(0 0 0)
(0.000975102 0 -1.86987e-06)
(0.00192439 0 -4.03148e-06)
(0.00291572 0 -6.81143e-06)
(0.00400722 0 -1.03498e-05)
(0.00524795 0 -1.45456e-05)
(0.00668341 0 -1.90374e-05)
(0.008355 0 -2.31846e-05)
(0.0103014 0 -2.60447e-05)
(0.0125606 0 -2.63897e-05)
(0.0151708 0 -2.27673e-05)
(0.0181702 0 -1.36324e-05)
(0.0215976 0 2.43095e-06)
(0.025493 0 2.63688e-05)
(0.0298985 0 5.81812e-05)
(0.0348586 0 9.62994e-05)
(0.0404216 0 0.000136816)
(0.0466409 0 0.000172585)
(0.0535762 0 0.000192229)
(0.061293 0 0.000179104)
(0.0698795 0 0.000110147)
(0.0794212 0 -4.46728e-05)
(0.0899695 0 -0.000322128)
(0.101584 0 -0.000765165)
(0.114357 0 -0.00142157)
(0.128281 0 -0.00233172)
(0.143129 0 -0.00350842)
(0.158462 0 -0.00490855)
(0.173348 0 -0.00636792)
(0.185492 0 -0.0075451)
(0.190459 0 -0.00799496)
(0 0 0)
(0.000977765 0 -2.46259e-06)
(0.00193 0 -5.24726e-06)
(0.00292467 0 -8.7669e-06)
(0.00402055 0 -1.3241e-05)
(0.00526632 0 -1.86602e-05)
(0.00670815 0 -2.47758e-05)
(0.00838905 0 -3.10849e-05)
(0.0103492 0 -3.68292e-05)
(0.0126286 0 -4.10229e-05)
(0.0152678 0 -4.25353e-05)
(0.0183083 0 -4.02421e-05)
(0.0217928 0 -3.3273e-05)
(0.025766 0 -2.13786e-05)
(0.0302749 0 -5.43607e-06)
(0.0353704 0 1.18968e-05)
(0.0411071 0 2.53794e-05)
(0.0475455 0 2.62554e-05)
(0.0547522 0 1.22439e-06)
(0.0627991 0 -6.86174e-05)
(0.0717808 0 -0.000209119)
(0.0817894 0 -0.000453278)
(0.0928815 0 -0.000840998)
(0.105121 0 -0.0014191)
(0.118604 0 -0.00224052)
(0.133339 0 -0.00335173)
(0.149146 0 -0.00477755)
(0.165671 0 -0.00650297)
(0.182063 0 -0.00841384)
(0.195662 0 -0.0101552)
(0.20879 0 -0.0105228)
(0 0 0)
(0.000983166 0 0)
(0.00192981 0 0)
(0.00290281 0 0)
(0.00395436 0 0)
(0.00512234 0 0)
(0.00643377 0 0)
(0.00790572 0 0)
(0.00954496 0 0)
(0.0113473 0 0)
(0.0132967 0 0)
(0.0153632 0 0)
(0.0175025 0 0)
(0.0196545 0 0)
(0.0217444 0 0)
(0.0236842 0 0)
(0.0253752 0 0)
(0.0267128 0 0)
(0.0275929 0 0)
(0.02792 0 0)
(0.0276158 0 0)
(0.0266278 0 0)
(0.0249369 0 0)
(0.0225649 0 0)
(0.0195803 0 0)
(0.0161046 0 0)
(0.0123192 0 0)
(0.00847759 0 0)
(0.00493245 0 0)
(0.00223946 0 0)
(0 0 0)
(0 0 0)
(0.000974915 0 1.69891e-07)
(0.00191504 0 3.43947e-07)
(0.00288244 0 5.53646e-07)
(0.00392872 0 8.55871e-07)
(0.00509177 0 1.34645e-06)
(0.00639876 0 2.17329e-06)
(0.00786706 0 3.55152e-06)
(0.00950385 0 5.7797e-06)
(0.0113055 0 9.257e-06)
(0.0132566 0 1.45023e-05)
(0.0153282 0 2.21717e-05)
(0.0174768 0 3.3073e-05)
(0.0196435 0 4.81744e-05)
(0.0217545 0 6.85963e-05)
(0.023723 0 9.56394e-05)
(0.0254517 0 0.000130793)
(0.0268366 0 0.000175713)
(0.0277744 0 0.000232226)
(0.0281701 0 0.000302327)
(0.0279455 0 0.000388174)
(0.0270479 0 0.000492061)
(0.0254581 0 0.000616394)
(0.0231974 0 0.000763671)
(0.0203344 0 0.00093647)
(0.0169913 0 0.0011374)
(0.013354 0 0.00136879)
(0.00968675 0 0.00163096)
(0.00636075 0 0.00191494)
(0.00394122 0 0.00217668)
(0.00238813 0 0.0024262)
(0 0 0)
(0.000965183 0 3.30038e-07)
(0.00189791 0 6.65112e-07)
(0.00285922 0 1.06493e-06)
(0.00390018 0 1.63944e-06)
(0.00505886 0 2.575e-06)
(0.00636291 0 4.16035e-06)
(0.00783046 0 6.81653e-06)
(0.00946972 0 1.11286e-05)
(0.0112783 0 1.78782e-05)
(0.0132425 0 2.80818e-05)
(0.0153357 0 4.30248e-05)
(0.017517 0 6.42894e-05)
(0.01973 0 9.37768e-05)
(0.0219039 0 0.000133662)
(0.0239554 0 0.000186469)
(0.0257905 0 0.000255096)
(0.0273085 0 0.00034273)
(0.0284083 0 0.000452874)
(0.028997 0 0.000589323)
(0.0289973 0 0.000756128)
(0.0283572 0 0.00095751)
(0.0270571 0 0.00119771)
(0.0251175 0 0.00148077)
(0.0226057 0 0.00181015)
(0.0196438 0 0.00218802)
(0.0164216 0 0.00261364)
(0.0132198 0 0.00307954)
(0.0104309 0 0.00356152)
(0.00860831 0 0.00399795)
(0.00740611 0 0.00432101)
(0 0 0)
(0.000962682 0 4.66462e-07)
(0.00189405 0 9.34833e-07)
(0.00285488 0 1.48762e-06)
(0.00389649 0 2.28132e-06)
(0.00505738 0 3.58399e-06)
(0.00636592 0 5.81304e-06)
(0.00784156 0 9.5794e-06)
(0.00949385 0 1.57329e-05)
(0.0113221 0 2.54064e-05)
(0.0133152 0 4.00727e-05)
(0.0154499 0 6.15926e-05)
(0.0176891 0 9.22545e-05)
(0.0199802 0 0.000134773)
(0.0222563 0 0.000192262)
(0.0244405 0 0.000268356)
(0.0264447 0 0.000367161)
(0.0281728 0 0.000493155)
(0.0295286 0 0.000651218)
(0.0304226 0 0.000846585)
(0.0307803 0 0.00108477)
(0.0305512 0 0.00137136)
(0.0297159 0 0.00171172)
(0.0282938 0 0.00211044)
(0.0263497 0 0.00257046)
(0.0240006 0 0.00309165)
(0.0214269 0 0.00366809)
(0.0189023 0 0.00428157)
(0.0168164 0 0.00488794)
(0.0156789 0 0.00539585)
(0.0148842 0 0.00570749)
(0 0 0)
(0.000961173 0 5.65768e-07)
(0.00189198 0 1.1262e-06)
(0.00285328 0 1.77912e-06)
(0.00389693 0 2.71863e-06)
(0.00506206 0 4.28246e-06)
(0.00637791 0 6.99986e-06)
(0.00786586 0 1.16493e-05)
(0.00953723 0 1.93114e-05)
(0.0113932 0 3.14249e-05)
(0.0134265 0 4.98618e-05)
(0.015618 0 7.69746e-05)
(0.0179354 0 0.000115637)
(0.0203316 0 0.000169218)
(0.0227466 0 0.000241642)
(0.0251108 0 0.000337435)
(0.0273434 0 0.000461589)
(0.0293557 0 0.000619519)
(0.0310578 0 0.000817045)
(0.0323656 0 0.00106031)
(0.0332083 0 0.00135566)
(0.0335375 0 0.00170939)
(0.0333344 0 0.00212714)
(0.0326162 0 0.0026131)
(0.0314439 0 0.00316876)
(0.0299254 0 0.00379089)
(0.0282209 0 0.00446831)
(0.0265633 0 0.00517403)
(0.0253156 0 0.00585063)
(0.0249482 0 0.00638856)
(0.0245052 0 0.00670369)
(0 0 0)
(0.000960558 0 6.17251e-07)
(0.00189156 0 1.21724e-06)
(0.00285417 0 1.9036e-06)
(0.00390114 0 2.89697e-06)
(0.00507233 0 4.58945e-06)
(0.00639773 0 7.60025e-06)
(0.00790092 0 1.28442e-05)
(0.00959584 0 2.15909e-05)
(0.0114869 0 3.55356e-05)
(0.0135705 0 5.68724e-05)
(0.015832 0 8.83356e-05)
(0.0182448 0 0.000133249)
(0.0207702 0 0.000195511)
(0.0233568 0 0.000279634)
(0.0259433 0 0.000390707)
(0.0284575 0 0.000534259)
(0.0308205 0 0.00071621)
(0.0329511 0 0.000942777)
(0.0347724 0 0.00122034)
(0.0362172 0 0.00155536)
(0.0372409 0 0.00195403)
(0.0378244 0 0.00242141)
(0.0379805 0 0.0029604)
(0.0377636 0 0.00357026)
(0.0372685 0 0.00424436)
(0.0366323 0 0.0049671)
(0.0360368 0 0.0057085)
(0.0357846 0 0.00640896)
(0.0363086 0 0.00695121)
(0.0362953 0 0.00730489)
(0 0 0)
(0.000960792 0 6.11907e-07)
(0.00189274 0 1.18971e-06)
(0.00285726 0 1.83174e-06)
(0.00390822 0 2.77172e-06)
(0.00508656 0 4.43864e-06)
(0.00642349 0 7.51768e-06)
(0.00794447 0 1.30241e-05)
(0.00966665 0 2.23731e-05)
(0.011599 0 3.74591e-05)
(0.0137413 0 6.07049e-05)
(0.0160831 0 9.51062e-05)
(0.0186062 0 0.000144307)
(0.0212809 0 0.000212563)
(0.0240654 0 0.000304692)
(0.0269079 0 0.00042602)
(0.0297477 0 0.000582242)
(0.0325173 0 0.000779293)
(0.035147 0 0.00102318)
(0.0375689 0 0.00131975)
(0.0397241 0 0.00167481)
(0.0415698 0 0.00209363)
(0.0430806 0 0.0025797)
(0.0442654 0 0.00313381)
(0.0451712 0 0.00375231)
(0.0458728 0 0.00442478)
(0.0464802 0 0.00513183)
(0.0471355 0 0.00584255)
(0.0480558 0 0.00649997)
(0.0496207 0 0.00698391)
(0.0502012 0 0.00733952)
(0 0 0)
(0.000961551 0 5.42719e-07)
(0.00189482 0 1.02945e-06)
(0.00286185 0 1.54144e-06)
(0.0039175 0 2.31087e-06)
(0.00510393 0 3.78553e-06)
(0.00645396 0 6.69075e-06)
(0.00799508 0 1.21057e-05)
(0.00974758 0 2.15412e-05)
(0.0117245 0 3.70149e-05)
(0.0139301 0 6.10902e-05)
(0.0163603 0 9.69204e-05)
(0.0190047 0 0.000148306)
(0.021843 0 0.00021963)
(0.0248437 0 0.000315762)
(0.027967 0 0.000441951)
(0.0311647 0 0.000603644)
(0.0343831 0 0.000806287)
(0.0375658 0 0.00105511)
(0.0406588 0 0.00135475)
(0.0436155 0 0.00170932)
(0.0463928 0 0.00212185)
(0.0489599 0 0.00259353)
(0.0513174 0 0.00312294)
(0.0534981 0 0.00370276)
(0.0555572 0 0.00431808)
(0.0575675 0 0.00494559)
(0.0596271 0 0.00555123)
(0.0618664 0 0.00607906)
(0.0645638 0 0.00641114)
(0.0658032 0 0.00666224)
(0 0 0)
(0.000962786 0 4.05035e-07)
(0.00189768 0 7.27369e-07)
(0.00286769 0 1.01916e-06)
(0.00392848 0 1.49606e-06)
(0.00512352 0 2.60639e-06)
(0.00648762 0 5.08902e-06)
(0.00805033 0 1.00478e-05)
(0.00983464 0 1.90365e-05)
(0.0118576 0 3.41221e-05)
(0.0141294 0 5.79232e-05)
(0.0166531 0 9.36416e-05)
(0.0194259 0 0.000145066)
(0.0224365 0 0.000216493)
(0.0256652 0 0.000312588)
(0.029085 0 0.000438205)
(0.032662 0 0.000598136)
(0.0363571 0 0.000796845)
(0.0401296 0 0.00103824)
(0.0439422 0 0.00132517)
(0.0477616 0 0.00165898)
(0.0515509 0 0.00203928)
(0.0552843 0 0.00246372)
(0.058948 0 0.00292788)
(0.0625471 0 0.00342143)
(0.0661136 0 0.00392464)
(0.0696753 0 0.0044097)
(0.0732602 0 0.00483954)
(0.076902 0 0.00516007)
(0.0807068 0 0.00527045)
(0.0825013 0 0.00536426)
(0 0 0)
(0.000964552 0 1.96306e-07)
(0.0019012 0 2.79462e-07)
(0.00287451 0 2.59939e-07)
(0.00394064 0 3.21773e-07)
(0.00514431 0 8.94492e-07)
(0.00652305 0 2.70675e-06)
(0.00810801 0 6.85429e-06)
(0.00992439 0 1.48795e-05)
(0.011994 0 2.88327e-05)
(0.0143332 0 5.13009e-05)
(0.0169518 0 8.54116e-05)
(0.0198545 0 0.000134798)
(0.0230401 0 0.000203484)
(0.0265007 0 0.000295692)
(0.0302227 0 0.000415581)
(0.0341873 0 0.000566913)
(0.0383714 0 0.000752667)
(0.0427526 0 0.000974859)
(0.0473115 0 0.00123401)
(0.0520285 0 0.00152808)
(0.0568819 0 0.00185238)
(0.0618532 0 0.00219978)
(0.0669238 0 0.00256078)
(0.072071 0 0.00292219)
(0.0772902 0 0.00326096)
(0.0825481 0 0.0035462)
(0.0877685 0 0.00374239)
(0.0928505 0 0.00380651)
(0.0976649 0 0.00367752)
(0.0998705 0 0.00363172)
(0 0 0)
(0.000966465 0 -8.3833e-08)
(0.00190495 0 -3.14854e-07)
(0.00288214 0 -7.36059e-07)
(0.00395402 0 -1.20582e-06)
(0.00516623 0 -1.33275e-06)
(0.00655873 0 -4.25379e-07)
(0.00816485 0 2.57623e-06)
(0.0100127 0 9.15686e-06)
(0.0121282 0 2.12849e-05)
(0.0145331 0 4.14345e-05)
(0.0172439 0 7.25544e-05)
(0.0202733 0 0.000117994)
(0.0236298 0 0.000181342)
(0.0273174 0 0.000266177)
(0.0313362 0 0.000375718)
(0.035683 0 0.0005124)
(0.0403523 0 0.000677353)
(0.045341 0 0.000870036)
(0.0506481 0 0.00108801)
(0.056272 0 0.00132567)
(0.0622094 0 0.00157324)
(0.0684502 0 0.00181787)
(0.0749794 0 0.00204402)
(0.0817699 0 0.00223345)
(0.0887747 0 0.00236119)
(0.0958677 0 0.00239812)
(0.10284 0 0.00231804)
(0.109403 0 0.00210314)
(0.115153 0 0.0017492)
(0.117689 0 0.00159403)
(0 0 0)
(0.000968421 0 -4.34143e-07)
(0.00190932 0 -1.05247e-06)
(0.0028905 0 -1.95981e-06)
(0.00396762 0 -3.0669e-06)
(0.00518786 0 -4.03864e-06)
(0.00659301 0 -4.2462e-06)
(0.00821869 0 -2.69802e-06)
(0.0100964 0 1.99827e-06)
(0.0122555 0 1.16787e-05)
(0.0147222 0 2.8631e-05)
(0.0175198 0 5.55361e-05)
(0.0206686 0 9.53522e-05)
(0.0241866 0 0.000151105)
(0.0280889 0 0.000225572)
(0.032389 0 0.000320857)
(0.0370993 0 0.000437863)
(0.0422321 0 0.000575668)
(0.0478023 0 0.000730875)
(0.0538287 0 0.00089726)
(0.0603319 0 0.00106528)
(0.0673318 0 0.00121992)
(0.074832 0 0.00134176)
(0.082824 0 0.00140875)
(0.0912979 0 0.00139611)
(0.100175 0 0.00127698)
(0.109227 0 0.0010287)
(0.118093 0 0.000643093)
(0.126244 0 0.000140605)
(0.13294 0 -0.000419036)
(0.135787 0 -0.000666394)
(0 0 0)
(0.000970501 0 -8.51869e-07)
(0.00191416 0 -1.92558e-06)
(0.00289892 0 -3.39359e-06)
(0.00398082 0 -5.23372e-06)
(0.00520864 0 -7.18109e-06)
(0.0066256 0 -8.68452e-06)
(0.0082692 0 -8.851e-06)
(0.0101739 0 -6.41348e-06)
(0.0123722 0 2.91751e-07)
(0.014895 0 1.33086e-05)
(0.0177712 0 3.498e-05)
(0.0210285 0 6.77916e-05)
(0.0246931 0 0.000114113)
(0.0287909 0 0.000175822)
(0.0333475 0 0.000253799)
(0.0383893 0 0.000347306)
(0.043945 0 0.000453254)
(0.0500469 0 0.000565423)
(0.0567324 0 0.000673702)
(0.0640483 0 0.00076375)
(0.0720404 0 0.000815282)
(0.0807275 0 0.000802468)
(0.0901202 0 0.000695935)
(0.100237 0 0.000463637)
(0.110991 0 7.62788e-05)
(0.122089 0 -0.000480791)
(0.133028 0 -0.00119189)
(0.143001 0 -0.00198827)
(0.150811 0 -0.00273966)
(0.15399 0 -0.00307052)
(0 0 0)
(0.000972717 0 -1.33242e-06)
(0.00191921 0 -2.9231e-06)
(0.00290728 0 -5.01794e-06)
(0.00399398 0 -7.67429e-06)
(0.00522872 0 -1.07064e-05)
(0.00665591 0 -1.36517e-05)
(0.00831497 0 -1.57369e-05)
(0.0102427 0 -1.58478e-05)
(0.0124748 0 -1.25274e-05)
(0.0150459 0 -4.01523e-06)
(0.0179901 0 1.16458e-05)
(0.0213411 0 3.64173e-05)
(0.025133 0 7.19626e-05)
(0.0294003 0 0.000119214)
(0.0341793 0 0.000177802)
(0.0395087 0 0.000245348)
(0.0454309 0 0.000316638)
(0.0519939 0 0.000382713)
(0.0592509 0 0.000429954)
(0.0672737 0 0.000439245)
(0.076131 0 0.000385034)
(0.0858585 0 0.000235567)
(0.0964941 0 -4.58389e-05)
(0.108095 0 -0.000499221)
(0.120603 0 -0.0011582)
(0.133723 0 -0.00203225)
(0.146904 0 -0.00308372)
(0.159111 0 -0.00418974)
(0.168512 0 -0.00513225)
(0.172208 0 -0.00552566)
(0 0 0)
(0.000975102 0 -1.86987e-06)
(0.00192439 0 -4.03148e-06)
(0.00291572 0 -6.81143e-06)
(0.00400722 0 -1.03498e-05)
(0.00524795 0 -1.45456e-05)
(0.00668341 0 -1.90374e-05)
(0.008355 0 -2.31846e-05)
(0.0103014 0 -2.60447e-05)
(0.0125606 0 -2.63897e-05)
(0.0151708 0 -2.27673e-05)
(0.0181702 0 -1.36324e-05)
(0.0215976 0 2.43095e-06)
(0.025493 0 2.63688e-05)
(0.0298985 0 5.81812e-05)
(0.0348586 0 9.62994e-05)
(0.0404216 0 0.000136816)
(0.0466409 0 0.000172585)
(0.0535762 0 0.000192229)
(0.061293 0 0.000179104)
(0.0698795 0 0.000110147)
(0.0794212 0 -4.46728e-05)
(0.0899695 0 -0.000322128)
(0.101584 0 -0.000765165)
(0.114357 0 -0.00142157)
(0.128281 0 -0.00233172)
(0.143129 0 -0.00350842)
(0.158462 0 -0.00490855)
(0.173348 0 -0.00636792)
(0.185492 0 -0.0075451)
(0.190459 0 -0.00799496)
(0 0 0)
(0.000977765 0 -2.46259e-06)
(0.00193 0 -5.24726e-06)
(0.00292467 0 -8.7669e-06)
(0.00402055 0 -1.3241e-05)
(0.00526632 0 -1.86602e-05)
(0.00670815 0 -2.47758e-05)
(0.00838905 0 -3.10849e-05)
(0.0103492 0 -3.68292e-05)
(0.0126286 0 -4.10229e-05)
(0.0152678 0 -4.25353e-05)
(0.0183083 0 -4.02421e-05)
(0.0217928 0 -3.3273e-05)
(0.025766 0 -2.13786e-05)
(0.0302749 0 -5.43607e-06)
(0.0353704 0 1.18968e-05)
(0.0411071 0 2.53794e-05)
(0.0475455 0 2.62554e-05)
(0.0547522 0 1.22439e-06)
(0.0627991 0 -6.86174e-05)
(0.0717808 0 -0.000209119)
(0.0817894 0 -0.000453278)
(0.0928815 0 -0.000840998)
(0.105121 0 -0.0014191)
(0.118604 0 -0.00224052)
(0.133339 0 -0.00335173)
(0.149146 0 -0.00477755)
(0.165671 0 -0.00650297)
(0.182063 0 -0.00841384)
(0.195662 0 -0.0101552)
(0.20879 0 -0.0105228)
(0 0 0)
(0.00257439 0 0)
(0.00665323 0 0)
(0.0124532 0 0)
(0.0189987 0 0)
(0.0254262 0 0)
(0.0310955 0 0)
(0.0356291 0 0)
(0.0388699 0 0)
(0.0408166 0 0)
(0.0415656 0 0)
(0.0412649 0 0)
(0.0400863 0 0)
(0.0382089 0 0)
(0.0358031 0 0)
(0.0330255 0 0)
(0.0300163 0 0)
(0.0268971 0 0)
(0.0237724 0 0)
(0.0207279 0 0)
(0.0178324 0 0)
(0.0151373 0 0)
(0.0126704 0 0)
(0.0104425 0 0)
(0.00845396 0 0)
(0.00669326 0 0)
(0.00513718 0 0)
(0.00374881 0 0)
(0.00247643 0 0)
(0.00125236 0 0)
(0 0 0)
(0.00218103 0 -0.00245241)
(0.00427003 0 -0.00241522)
(0.00826613 0 -0.00245722)
(0.0139639 0 -0.00245617)
(0.0203893 0 -0.00241654)
(0.0266716 0 -0.00232971)
(0.0321773 0 -0.00219468)
(0.0365435 0 -0.00202192)
(0.0396236 0 -0.00182551)
(0.0414224 0 -0.00161869)
(0.0420391 0 -0.00141299)
(0.041624 0 -0.00121608)
(0.0403493 0 -0.00103246)
(0.038393 0 -0.000865991)
(0.0359239 0 -0.000717752)
(0.0330963 0 -0.000587333)
(0.0300486 0 -0.000474564)
(0.0269007 0 -0.00037853)
(0.0237556 0 -0.00029801)
(0.0206987 0 -0.000231449)
(0.0177963 0 -0.000177138)
(0.015097 0 -0.000133537)
(0.0126293 0 -9.9064e-05)
(0.0104034 0 -7.21738e-05)
(0.00841819 0 -5.154e-05)
(0.006662 0 -3.59813e-05)
(0.00511147 0 -2.44169e-05)
(0.00372947 0 -1.58858e-05)
(0.00246398 0 -9.51385e-06)
(0.00124688 0 -4.48519e-06)
(0 0 0)
(0.00692537 0 -0.00462082)
(0.00896681 0 -0.00467616)
(0.0128941 0 -0.00480475)
(0.0184022 0 -0.00485248)
(0.0245309 0 -0.00479579)
(0.030416 0 -0.00462647)
(0.0354668 0 -0.00435536)
(0.0393662 0 -0.00400901)
(0.0419961 0 -0.00361691)
(0.0433774 0 -0.00320521)
(0.0436195 0 -0.00279557)
(0.0428778 0 -0.00240384)
(0.0413246 0 -0.00203981)
(0.0391347 0 -0.00170964)
(0.0364752 0 -0.00141583)
(0.0334955 0 -0.00115811)
(0.0303278 0 -0.000935539)
(0.0270875 0 -0.000746151)
(0.0238728 0 -0.000587139)
(0.0207653 0 -0.000455633)
(0.0178271 0 -0.000348595)
(0.0151026 0 -0.000262758)
(0.0126185 0 -0.000194918)
(0.0103837 0 -0.000142058)
(0.00839492 0 -0.000101513)
(0.00663903 0 -7.08816e-05)
(0.00509133 0 -4.80813e-05)
(0.00371372 0 -3.12596e-05)
(0.00245367 0 -1.87223e-05)
(0.00124244 0 -8.83559e-06)
(0 0 0)
(0.0140401 0 -0.00669006)
(0.016115 0 -0.00687925)
(0.0201364 0 -0.00712991)
(0.025479 0 -0.00723511)
(0.0311931 0 -0.0071522)
(0.0364729 0 -0.00688429)
(0.0408273 0 -0.00646481)
(0.04401 0 -0.00593908)
(0.0459436 0 -0.00535078)
(0.0466735 0 -0.00473673)
(0.0463273 0 -0.00412785)
(0.0450704 0 -0.0035473)
(0.0430767 0 -0.00300936)
(0.0405142 0 -0.00252093)
(0.0375449 0 -0.00208597)
(0.0343138 0 -0.00170557)
(0.0309451 0 -0.00137759)
(0.0275473 0 -0.00109884)
(0.0242108 0 -0.000864922)
(0.0210088 0 -0.000671358)
(0.0179983 0 -0.000513724)
(0.0152207 0 -0.000387285)
(0.0126984 0 -0.000287318)
(0.0104364 0 -0.000209424)
(0.00842936 0 -0.000149683)
(0.00666192 0 -0.000104559)
(0.00510667 0 -7.09568e-05)
(0.00372371 0 -4.61514e-05)
(0.00245972 0 -2.76536e-05)
(0.00124536 0 -1.30618e-05)
(0 0 0)
(0.0232083 0 -0.0089058)
(0.0254757 0 -0.00919466)
(0.0296999 0 -0.00953842)
(0.0348637 0 -0.00965878)
(0.0400246 0 -0.0095064)
(0.0445061 0 -0.00910741)
(0.0479489 0 -0.00851827)
(0.0501878 0 -0.00780116)
(0.051198 0 -0.00701195)
(0.0510656 0 -0.00619702)
(0.0499406 0 -0.00539372)
(0.0480016 0 -0.00463113)
(0.0454251 0 -0.00392704)
(0.0423718 0 -0.00328907)
(0.0389943 0 -0.00272143)
(0.0354283 0 -0.0022251)
(0.0317904 0 -0.00179749)
(0.0281805 0 -0.00143435)
(0.0246794 0 -0.00112982)
(0.0213503 0 -0.000877644)
(0.0182425 0 -0.000671837)
(0.0153919 0 -0.000506495)
(0.0128161 0 -0.000375776)
(0.0105157 0 -0.000273936)
(0.00848215 0 -0.000195793)
(0.00669727 0 -0.000136801)
(0.00513044 0 -9.29025e-05)
(0.00373932 0 -6.04749e-05)
(0.00246931 0 -3.62612e-05)
(0.00125011 0 -1.71431e-05)
(0 0 0)
(0.0344609 0 -0.0114204)
(0.0369382 0 -0.0117273)
(0.0413665 0 -0.0120945)
(0.0462455 0 -0.0121532)
(0.0506842 0 -0.011868)
(0.0541842 0 -0.0112946)
(0.0565185 0 -0.0105077)
(0.0576101 0 -0.00958252)
(0.0575012 0 -0.00858476)
(0.0563331 0 -0.00756941)
(0.0542809 0 -0.0065781)
(0.0515297 0 -0.00564209)
(0.0482532 0 -0.00478036)
(0.0446112 0 -0.00400231)
(0.040746 0 -0.00331177)
(0.0367793 0 -0.00270812)
(0.032818 0 -0.00218829)
(0.0289522 0 -0.00174694)
(0.0252523 0 -0.00137687)
(0.0217707 0 -0.00107038)
(0.0185467 0 -0.000820022)
(0.0156079 0 -0.000618626)
(0.0129662 0 -0.000459202)
(0.0106187 0 -0.000334927)
(0.00855234 0 -0.000239503)
(0.00674453 0 -0.000167406)
(0.00516197 0 -0.000113751)
(0.00376007 0 -7.41103e-05)
(0.00248209 0 -4.44794e-05)
(0.0012565 0 -2.1049e-05)
(0 0 0)
(0.0478024 0 -0.0141822)
(0.0503704 0 -0.0144427)
(0.0548673 0 -0.0147646)
(0.0592696 0 -0.0146899)