/*--------------------------------*- C++ -*----------------------------------*\
| =========                 |                                                 |
| \\      /  F ield         | OpenFOAM: The Open Source CFD Toolbox           |
|  \\    /   O peration     | Version:  2006                                  |
|   \\  /    A nd           | Website:  www.openfoam.com                      |
|    \\/     M anipulation  |                                                 |
\*---------------------------------------------------------------------------*/
FoamFile
{
    version     2.0;
    format      ascii;
    class       volVectorField;
    location    "0.6";
    object      U;
}
// * * * * * * * * * * * * * * * * * * * * * * * * * * * * * * * * * * * * * //

dimensions      [0 1 -1 0 0 0 0];


internalField   nonuniform List<vector> 
2790
(
(9.94321 0 0.0193487)
(9.8828 0 0.0271596)
(9.79452 0 0.0323141)
(9.68438 3.54869e-22 0.0376173)
(9.55837 0 0.0431334)
(9.41754 0 0.0487928)
(9.26103 0 0.0547109)
(9.08783 2.54494e-20 0.0610407)
(8.89703 -2.60023e-20 0.0679152)
(8.6876 -2.7251e-20 0.0754596)
(8.45827 2.791e-20 0.0838079)
(8.20758 0 0.0931108)
(7.93387 7.69433e-21 0.103536)
(7.63533 2.40112e-20 0.11526)
(7.3101 -3.35425e-22 0.128462)
(6.95631 1.06521e-19 0.143333)
(6.57218 -1.49026e-19 0.160046)
(6.15619 0 0.178733)
(5.70726 8.48134e-20 0.199457)
(5.22497 3.67206e-19 0.222176)
(4.70982 -3.87828e-19 0.24669)
(4.16347 0 0.272582)
(3.58905 2.29348e-19 0.299133)
(2.99141 0 0.325167)
(2.37744 0 0.348668)
(1.75656 0 0.365589)
(1.1415 -3.29571e-18 0.365598)
(0.556699 7.11171e-19 0.31643)
(0.0450674 6.21828e-18 0.127196)
(-0.0873091 -9.03634e-18 -0.271961)
(9.9981 0 0.037065)
(9.98926 -3.3861e-22 0.0550842)
(9.95611 3.4394e-22 0.0682361)
(9.90051 3.50039e-22 0.0821035)
(9.82702 7.15143e-22 0.096891)
(9.73678 0 0.112397)
(9.62911 2.71146e-20 0.128842)
(9.50309 -4.93123e-20 0.146564)
(9.35784 3.15643e-20 0.16587)
(9.19233 6.58409e-21 0.187052)
(9.00534 -6.71654e-21 0.210422)
(8.79541 -2.82465e-20 0.236326)
(8.56087 -5.89152e-20 0.265146)
(8.29994 2.98284e-20 0.297258)
(8.01067 3.15904e-20 0.33303)
(7.6911 0 0.372812)
(7.33933 -6.96014e-20 0.416865)
(6.95361 1.47246e-19 0.465283)
(6.53259 -7.8184e-20 0.517919)
(6.07546 -1.65697e-19 0.574264)
(5.58226 0 0.633326)
(5.05409 0 0.693476)
(4.4935 -2.03941e-19 0.752273)
(3.90477 0 0.806186)
(3.29437 0 0.850077)
(2.67154 0 0.875951)
(2.04828 5.05656e-18 0.869831)
(1.43936 -1.5295e-17 0.804302)
(0.847668 1.07611e-17 0.629806)
(0.420707 -7.6261e-19 0.259039)
(9.99515 6.68439e-22 0.0370492)
(9.98316 -1.01443e-21 0.0630996)
(9.95163 1.72139e-21 0.0852267)
(9.90016 -3.48717e-21 0.108258)
(9.83197 -2.13561e-21 0.132792)
(9.74831 0 0.158733)
(9.64881 -5.95541e-21 0.186371)
(9.53272 6.10121e-21 0.21618)
(9.3993 -6.27893e-21 0.248635)
(9.24771 0 0.284206)
(9.07693 0 0.323406)
(8.8857 1.11024e-19 0.366807)
(8.67258 -8.47056e-20 0.415038)
(8.43605 0 0.468742)
(8.17435 -2.19696e-22 0.528561)
(7.88563 1.28455e-19 0.595114)
(7.5681 1.34985e-19 0.6689)
(7.21997 -2.8268e-19 0.750179)
(6.83961 0 0.838838)
(6.42573 1.57443e-19 0.934206)
(5.97752 0 1.03483)
(5.49486 0 1.13822)
(4.97855 0 1.24051)
(4.43052 0 1.33607)
(3.85386 8.57968e-19 1.41684)
(3.25259 -8.36838e-18 1.47112)
(2.62987 -5.49777e-20 1.48163)
(1.98547 1.04362e-18 1.42278)
(1.28996 9.60778e-18 1.26642)
(0.66622 0 0.970297)
(9.99354 6.6792e-22 0.0409419)
(9.97922 -6.74573e-22 0.0763723)
(9.94728 1.37016e-21 0.108567)
(9.89673 5.21152e-22 0.140978)
(9.82987 5.85559e-21 0.174783)
(9.74788 -2.8836e-21 0.210283)
(9.65061 2.96065e-21 0.247921)
(9.53746 -6.0649e-21 0.288319)
(9.40788 1.24148e-20 0.332122)
(9.26116 0 0.379984)
(9.09654 0 0.432612)
(8.91301 2.18845e-19 0.490782)
(8.70949 -4.49185e-19 0.555348)
(8.48483 2.30727e-19 0.627214)
(8.23764 -6.04673e-20 0.707307)
(7.96651 -1.25823e-19 0.796524)
(7.67005 -1.05675e-18 0.89565)
(7.34679 1.49358e-18 1.00522)
(6.99533 0 1.12535)
(6.6143 -2.99286e-19 1.25548)
(6.20247 2.55232e-18 1.3941)
(5.75876 -2.64666e-18 1.5384)
(5.28233 -6.38812e-18 1.68387)
(4.77244 -8.04423e-20 1.82381)
(4.22821 5.53326e-18 1.94885)
(3.64783 8.11574e-21 2.04621)
(3.02656 1.37889e-17 2.09924)
(2.35601 -1.68182e-17 2.08767)
(1.59654 0 1.99846)
(0.849384 0 1.80918)
(9.99275 3.33093e-22 0.0463017)
(9.97711 1.17627e-21 0.0895343)
(9.94479 -5.11757e-22 0.130314)
(9.89497 -3.81836e-21 0.171129)
(9.82941 1.4012e-21 0.213482)
(9.7491 0 0.25802)
(9.65391 0 0.305306)
(9.54336 1.19966e-20 0.356043)
(9.41694 -2.46202e-20 0.410983)
(9.27407 0 0.470906)
(9.11408 0 0.536643)
(8.93614 0 0.609106)
(8.73938 2.22533e-19 0.689295)
(8.52289 -2.26446e-19 0.778306)
(8.28559 0 0.877266)
(8.02642 -9.88553e-19 0.987282)
(7.74436 1.00939e-18 1.10937)
(7.43831 -2.65894e-19 1.24434)
(7.10714 2.50493e-18 1.39257)
(6.74968 -1.99927e-18 1.55379)
(6.36456 0 1.72674)
(5.95012 6.29932e-19 1.90879)
(5.5043 1.33196e-18 2.09551)
(5.0243 5.65532e-18 2.28021)
(4.50616 6.78304e-18 2.45373)
(3.94407 -1.17733e-17 2.60416)
(3.32884 1.44027e-17 2.7174)
(2.64971 -1.44937e-17 2.77807)
(1.86984 9.78739e-19 2.77882)
(1.03243 1.71929e-17 2.71946)
(9.99238 0 0.0523462)
(9.9761 -6.71019e-22 0.10283)
(9.94376 0 0.151764)
(9.89486 0 0.200955)
(9.83089 -5.62528e-21 0.251893)
(9.75261 5.69362e-21 0.305424)
(9.6599 0 0.36222)
(9.55234 3.59446e-20 0.423051)
(9.42949 2.48783e-20 0.488764)
(9.29082 -4.96801e-20 0.560255)
(9.13576 -2.32004e-19 0.638476)
(8.96358 1.56886e-19 0.724458)
(8.77352 0 0.819346)
(8.56481 0 0.924388)
(8.33657 1.1506e-19 1.04088)
(8.08798 -9.63543e-19 1.1701)
(7.81818 9.81436e-19 1.3133)
(7.52632 0 1.47152)
(7.21147 -2.67791e-19 1.64545)
(6.87257 0 1.83521)
(6.50821 -4.6579e-18 2.04)
(6.11641 3.58136e-18 2.25772)
(5.69432 -1.26023e-18 2.48458)
(5.23777 0 2.71468)
(4.741 1.04783e-17 2.93989)
(4.19607 -1.09598e-17 3.14985)
(3.59213 0 3.3326)
(2.91874 -1.33606e-17 3.47524)
(2.15447 1.4306e-17 3.56501)
(1.24016 1.27355e-20 3.63559)
(9.99224 6.5958e-22 0.0586915)
(9.97579 6.66556e-22 0.116165)
(9.94379 3.38285e-21 0.172823)
(9.89604 -3.42172e-21 0.230062)
(9.8339 0 0.289264)
(9.758 0 0.351416)
(9.66818 -5.76736e-21 0.417316)
(9.56409 0 0.487815)
(9.44533 -1.20778e-20 0.563845)
(9.31147 0 0.646406)
(9.162 2.53374e-20 0.736556)
(8.99623 5.2003e-20 0.835439)
(8.81352 -5.30855e-20 0.944312)
(8.61319 -1.09158e-19 1.06454)
(8.3945 -9.10726e-19 1.19757)
(8.15673 9.23775e-19 1.34485)
(7.89911 -2.38934e-19 1.50782)
(7.6209 2.46785e-19 1.68777)
(7.3212 2.55172e-19 1.88573)
(6.99897 0 2.10227)
(6.65273 0 2.3372)
(6.28035 4.62405e-18 2.58924)
(5.87847 -8.34358e-18 2.85561)
(5.44215 4.94114e-18 3.13157)
(4.96466 6.42682e-19 3.41037)
(4.43722 -1.09589e-17 3.68309)
(3.84864 1.14627e-17 3.93873)
(3.18752 0 4.16468)
(2.46025 -8.23696e-19 4.33191)
(1.47402 4.51158e-19 4.51286)
(9.99224 -1.3175e-21 0.0651159)
(9.97595 -1.14682e-24 0.129376)
(9.94461 -1.00922e-21 0.193367)
(9.89825 6.82716e-22 0.258293)
(9.83819 1.3812e-21 0.325436)
(9.76498 2.80791e-21 0.39587)
(9.67845 5.73977e-21 0.470509)
(9.5783 4.69263e-20 0.550275)
(9.46419 -4.74496e-20 0.636172)
(9.33573 0 0.729286)
(9.19248 -1.50794e-19 0.830773)
(9.03385 3.5731e-19 0.941879)
(8.85927 -1.03268e-19 1.06396)
(8.66816 -2.17631e-19 1.1985)
(8.45984 4.36637e-19 1.34706)
(8.23368 2.25279e-19 1.51128)
(7.98898 2.34227e-19 1.69279)
(7.725 -2.17473e-18 1.89317)
(7.4408 3.95144e-18 2.1138)
(7.13524 -2.02441e-18 2.35574)
(6.80679 0 2.61952)
(6.45312 5.48063e-19 2.90487)
(6.07064 -5.674e-19 3.21023)
(5.65404 0 3.53229)
(5.19603 -1.20943e-18 3.86565)
(4.68736 -1.2602e-18 4.20256)
(4.11693 6.50123e-19 4.53198)
(3.46819 2.18685e-17 4.8408)
(2.78352 -2.35723e-17 5.07715)
(1.72674 0 5.34857)
(9.99232 0 0.071481)
(9.97645 0 0.142317)
(9.94604 -2.34514e-21 0.213287)
(9.9013 8.22223e-21 0.285532)
(9.84359 -6.86149e-21 0.360262)
(9.77336 -4.18951e-21 0.438609)
(9.69049 5.66229e-21 0.521573)
(9.59472 5.76267e-21 0.610148)
(9.48574 0 0.705406)
(9.36323 9.66075e-20 0.808503)
(9.22682 -1.46823e-19 0.920682)
(9.07601 -1.5143e-19 1.04328)
(8.91033 1.52401e-19 1.17774)
(8.72926 -1.05398e-19 1.32564)
(8.53222 -8.66692e-19 1.4887)
(8.31864 7.63268e-19 1.66871)
(8.08787 -2.24347e-19 1.86754)
(7.83919 0 2.08706)
(7.57156 -2.39296e-19 2.32905)
(7.28378 0 2.59509)
(6.97423 -4.02806e-18 2.88653)
(6.64036 4.09113e-18 3.20418)
(6.27845 5.22576e-19 3.54792)
(5.88308 -8.73895e-18 3.91601)
(5.44651 1.85233e-17 4.30449)
(4.95886 -8.68015e-18 4.70674)
(4.40914 9.02347e-18 5.11118)
(3.77092 -9.75307e-18 5.50507)
(3.12617 -2.10218e-17 5.812)
(1.99675 2.29811e-17 6.16997)
(9.99246 1.22412e-21 0.0776943)
(9.97719 1.64775e-21 0.154868)
(9.94793 -2.99045e-21 0.232473)
(9.90505 -8.43132e-23 0.311656)
(9.84993 -1.70128e-22 0.393595)
(9.78296 1.38722e-21 0.479449)
(9.7041 -5.63655e-21 0.570286)
(9.61311 -5.73153e-21 0.667174)
(9.5097 0 0.771243)
(9.39365 0 0.883709)
(9.26465 0 1.00588)
(9.12231 1.98125e-19 1.13918)
(8.96624 -2.49954e-19 1.28512)
(8.79599 -1.02082e-19 1.4454)
(8.61112 7.38138e-19 1.62184)
(8.41108 -1.8203e-18 1.81641)
(8.19534 2.84956e-18 2.03122)
(7.96314 -1.77613e-18 2.26846)
(7.71347 0 2.53034)
(7.44519 0 2.81903)
(7.15651 3.82271e-18 3.13669)
(6.8448 -3.62609e-18 3.4854)
(6.50621 7.45287e-18 3.86654)
(6.13518 -8.32744e-18 4.2801)
(5.72364 0 4.724)
(5.26076 0 5.19322)
(4.7355 1.74238e-17 5.67592)
(4.10773 -3.58597e-17 6.16125)
(3.49932 1.90356e-17 6.54933)
(2.29052 0 7.00598)
(9.99265 8.13742e-23 0.0836891)
(9.97811 -2.29665e-21 0.166931)
(9.95019 3.63403e-21 0.250824)
(9.9094 6.69417e-21 0.336552)
(9.85708 -5.23487e-21 0.425292)
(9.79366 0 0.518221)
(9.71911 0 0.616454)
(9.63322 5.6355e-21 0.721126)
(9.5358 -1.14491e-20 0.833421)
(9.42667 -1.05517e-19 0.9546)
(9.30559 9.46365e-20 1.08603)
(9.17229 4.81566e-20 1.22918)
(9.02648 4.45592e-19 1.38566)
(8.86779 -2.9826e-19 1.55724)
(8.69588 1.01501e-19 1.74587)
(8.51032 8.36391e-19 1.95368)
(8.31064 -8.41995e-19 2.18299)
(8.09617 0 2.43633)
(7.86606 2.16841e-19 2.71635)
(7.61929 -2.20021e-19 3.02583)
(7.35388 -3.73305e-18 3.3678)
(7.0674 -2.53168e-19 3.74571)
(6.75608 3.69687e-18 4.1626)
(6.41401 2.38055e-19 4.62039)
(6.03295 -7.46871e-18 5.11948)
(5.60091 7.72373e-18 5.65763)
(5.10658 0 6.22411)
(4.49313 1.61578e-17 6.81183)
(3.91914 -1.68549e-17 7.30027)
(2.61914 0 7.88211)
(9.99288 6.4489e-22 0.0894167)
(9.97916 -6.52833e-22 0.178426)
(9.95276 -6.58681e-22 0.268244)
(9.91424 -2.65567e-21 0.360115)
(9.86494 1.0772e-20 0.455229)
(9.8053 -1.08544e-20 0.554775)
(9.73532 1.71725e-22 0.659905)
(9.65485 -8.39272e-21 0.771807)
(9.56376 1.13819e-20 0.891707)
(9.46195 1.15576e-20 1.0209)
(9.34926 0 1.1608)
(9.22551 -2.38621e-19 1.31293)
(9.09051 5.79981e-19 1.47895)
(8.94402 -3.90178e-19 1.6607)
(8.78579 -1.98984e-19 1.86024)
(8.61555 0 2.07984)
(8.43296 -1.01582e-19 2.32203)
(8.23748 1.02809e-19 2.58961)
(8.0286 -2.11834e-19 2.88568)
(7.80533 3.61623e-18 3.21363)
(7.56574 -3.35405e-18 3.57732)
(7.30796 0 3.98164)
(7.02858 0 4.43148)
(6.72156 0 4.93098)
(6.37865 -1.10371e-19 5.48374)
(5.98683 6.87976e-18 6.09206)
(5.53445 -1.38852e-19 6.74925)
(4.94579 -7.55642e-18 7.45527)
(4.40938 0 8.07612)
(3.00098 1.52587e-17 8.83496)
(9.99313 -1.93072e-21 0.0948399)
(9.98033 1.29512e-21 0.189285)
(9.9556 -5.23014e-21 0.284653)
(9.9195 6.58863e-21 0.382253)
(9.87338 -2.65711e-21 0.483298)
(9.81773 0 0.588981)
(9.75257 -1.71038e-22 0.700486)
(9.67779 2.77215e-21 0.819037)
(9.59334 -4.49494e-20 0.945892)
(9.4992 5.6532e-20 1.08238)
(9.39527 -1.14495e-20 1.22993)
(9.2815 1.87336e-19 1.39011)
(9.15778 -2.11788e-19 1.56462)
(9.02402 0 1.75536)
(8.88011 9.75881e-20 1.96446)
(8.72593 -4.86645e-20 2.19429)
(8.56135 9.98771e-20 2.44754)
(8.38604 1.50334e-18 2.72726)
(8.19989 -3.26876e-18 3.03698)
(8.002 -5.4815e-22 3.38055)
(7.79079 -1.52231e-18 3.7626)
(7.56534 2.1108e-21 4.18942)
(7.32294 1.33559e-20 4.66774)
(7.05805 -3.13921e-18 5.20421)
(6.76317 1.25468e-17 5.80639)
(6.42517 -5.48834e-18 6.48313)
(6.03291 -5.96512e-18 7.23659)
(5.49213 1.78514e-17 8.0806)
(5.01213 -1.24097e-17 8.88584)
(3.47286 1.20655e-17 9.92556)
(9.99341 0 0.0999286)
(9.98158 -2.56775e-21 0.199453)
(9.95863 -5.19467e-21 0.299982)
(9.92508 5.22834e-21 0.402886)
(9.88232 7.91987e-21 0.509403)
(9.83084 -1.07073e-20 0.620732)
(9.77069 2.70507e-20 0.738072)
(9.70183 -2.17884e-20 0.862674)
(9.62429 0 0.995821)
(9.53808 7.85408e-20 1.13886)
(9.44324 -9.01118e-20 1.29323)
(9.33979 1.83825e-19 1.46051)
(9.22775 -1.84274e-19 1.64244)
(9.10716 0 1.84093)
(8.97808 0 2.05816)
(8.84058 4.79939e-20 2.29656)
(8.69475 0 2.55892)
(8.54055 0 2.84847)
(8.37833 1.59522e-18 3.16907)
(8.20745 -1.54659e-18 3.52493)
(8.02701 -4.85904e-20 3.92122)
(7.83723 3.02916e-18 4.36531)
(7.63669 -2.7275e-20 4.86564)
(7.42135 -4.46118e-20 5.43124)
(7.1859 -3.56104e-18 6.07386)
(6.91971 -5.40087e-18 6.81022)
(6.6157 2.72393e-19 7.65665)
(6.16908 8.73697e-18 8.65277)
(5.80367 -1.39549e-17 9.72209)
(4.11308 9.32881e-19 11.2756)
(9.9937 2.5362e-21 0.104659)
(9.98292 2.56559e-21 0.208889)
(9.96183 2.56897e-21 0.314177)
(9.93092 0 0.421943)
(9.89165 -1.57587e-20 0.533448)
(9.8445 5.28967e-21 0.649903)
(9.78953 5.36196e-21 0.772511)
(9.72678 0 0.902535)
(9.65634 4.37552e-20 1.04127)
(9.57832 -4.25858e-20 1.19008)
(9.4928 1.00514e-19 1.35039)
(9.39994 -1.79837e-19 1.52379)
(9.29987 1.13264e-19 1.712)
(9.19279 1.83455e-19 1.91696)
(9.07891 -1.95071e-19 2.14083)
(8.95854 -3.59641e-19 2.38606)
(8.832 3.71336e-19 2.65549)
(8.69959 0 2.95239)
(8.5621 0 3.28084)
(8.41947 0 3.64523)
(8.27162 1.63096e-18 4.05095)
(8.12006 -1.43541e-18 4.50596)
(7.96525 1.72574e-18 5.01981)
(7.80581 -7.00227e-19 5.60325)
(7.64065 1.28685e-18 6.27102)
(7.46607 -4.14151e-18 7.04612)
(7.28822 2.30046e-18 7.95923)
(7.02081 1.05997e-18 9.07692)
(6.92067 0 10.442)
(5.21263 4.95907e-18 13.1103)
(-0.0163891 2.22581e-19 0.142779)
(-0.589422 7.80923e-20 0.400753)
(-1.38924 -6.85249e-20 0.4713)
(-2.29592 9.78083e-21 0.494239)
(-3.27356 5.50997e-20 0.497495)
(-4.28891 -1.80622e-19 0.489423)
(-5.31576 1.12591e-19 0.473638)
(-6.33466 5.20763e-20 0.452125)
(-7.33143 6.73415e-20 0.426091)
(-8.29548 0 0.39631)
(-9.21837 9.13921e-21 0.363295)
(-10.0926 -1.00387e-19 0.327371)
(-10.9107 0 0.28872)
(-11.6646 0 0.247433)
(-12.3452 0 0.203537)
(-12.942 -5.68138e-20 0.157017)
(-13.4432 6.0587e-20 0.107819)
(-13.8358 -1.03196e-20 0.0559032)
(-14.1054 3.08306e-20 0.00110544)
(-14.2363 2.03339e-20 -0.0572191)
(-14.2106 0 -0.12094)
(-14.0102 1.88103e-20 -0.19204)
(-13.615 -1.60449e-20 -0.271658)
(-13.0025 1.61767e-20 -0.362824)
(-12.1433 1.0889e-20 -0.471204)
(-10.9901 -1.12072e-20 -0.606411)
(-9.45738 -1.83083e-21 -0.788264)
(-7.39251 1.95166e-21 -1.06242)
(-4.53851 0 -1.49916)
(0.286067 0 -2.06697)
(-0.276509 -4.13417e-19 0.587636)
(-0.869014 6.30388e-19 0.896901)
(-1.67146 -3.79238e-19 1.04062)
(-2.56203 1.1743e-19 1.12114)
(-3.51647 1.219e-19 1.16354)
(-4.50375 1.19222e-19 1.17936)
(-5.49955 -2.14515e-19 1.17504)
(-6.48595 -1.50056e-19 1.15465)
(-7.44979 6.79733e-20 1.12092)
(-8.38117 0 1.07567)
(-9.27215 6.89362e-19 1.02019)
(-10.1155 -3.89526e-19 0.95526)
(-10.9039 -2.55771e-19 0.881247)
(-11.6293 5.24104e-19 0.798222)
(-12.2825 -1.20105e-19 0.706073)
(-12.8531 -7.32788e-20 0.604601)
(-13.329 1.55238e-19 0.493628)
(-13.6972 1.68165e-19 0.373113)
(-13.9438 -1.6493e-19 0.243181)
(-14.0541 4.14432e-20 0.103602)
(-14.0105 8.13417e-20 -0.0468087)
(-13.8035 -5.70265e-20 -0.206843)
(-13.419 0 -0.375223)
(-12.8393 6.92054e-21 -0.555466)
(-12.0422 -6.95401e-21 -0.755387)
(-10.9951 -9.85365e-21 -0.988191)
(-9.64297 6.49812e-21 -1.28113)
(-7.88524 1.42391e-21 -1.69637)
(-5.57025 0 -2.31361)
(-2.83908 0 -2.99359)
(-0.297387 1.77307e-20 1.20205)
(-0.896504 0 1.55689)
(-1.69603 1.31023e-21 1.75072)
(-2.5532 9.55043e-20 1.86762)
(-3.45839 -8.64295e-20 1.92915)
(-4.38624 0 1.9489)
(-5.31726 0 1.93572)
(-6.23704 9.72276e-20 1.89572)
(-7.13474 3.32012e-19 1.83306)
(-8.00221 -4.00763e-19 1.75067)
(-8.83303 -1.84615e-19 1.65056)
(-9.62106 0 1.53393)
(-10.3598 0 1.40129)
(-11.0418 5.6542e-19 1.25276)
(-11.6582 -2.55011e-19 1.08817)
(-12.199 -1.53331e-19 0.907375)
(-12.6523 0 0.710459)
(-13.0051 -1.6761e-19 0.498063)
(-13.2435 -1.75256e-19 0.271527)
(-13.3531 -8.62867e-20 0.0327092)
(-13.3177 1.5385e-21 -0.216135)
(-13.1303 1.12461e-21 -0.476543)
(-12.7797 1.0952e-19 -0.749334)
(-12.2535 1.42797e-20 -1.03832)
(-11.5377 -1.41832e-20 -1.35276)
(-10.6133 9.5797e-21 -1.70771)
(-9.45164 -1.32188e-20 -2.12829)
(-7.99803 -1.13048e-21 -2.65886)
(-6.1817 -1.91998e-22 -3.3479)
(-4.34144 0 -4.11911)
(-0.209677 5.49432e-19 1.85663)
(-0.773233 -1.94356e-19 2.23879)
(-1.56096 -2.5146e-19 2.45361)
(-2.37594 -4.65076e-21 2.58527)
(-3.22269 -3.78757e-20 2.65223)
(-4.08136 0 2.6685)
(-4.9384 -8.71549e-19 2.64422)
(-5.78367 7.44049e-19 2.58665)
(-6.60928 1.32595e-19 2.50077)
(-7.40929 -1.62044e-19 2.39019)
(-8.1788 8.58346e-19 2.25736)
(-8.91262 1.42594e-19 2.1036)
(-9.60473 -9.39595e-19 1.92935)
(-10.2477 -2.83866e-19 1.73448)
(-10.8324 1.00164e-20 1.51849)
(-11.3483 0 1.28068)
(-11.7829 -3.50309e-19 1.02053)
(-12.1225 5.2837e-19 0.73804)
(-12.353 1.80716e-19 0.43401)
(-12.4596 0 0.110049)
(-12.4267 -9.41286e-20 -0.231622)
(-12.2518 -8.48841e-20 -0.586625)
(-11.9281 2.6398e-21 -0.953475)
(-11.4489 0 -1.33674)
(-10.8076 -2.79145e-20 -1.74767)
(-9.99626 -2.1878e-20 -2.20395)
(-9.00518 6.82539e-21 -2.72905)
(-7.81068 0 -3.35105)
(-6.3884 0 -4.09333)
(-5.07136 -2.59739e-22 -4.88624)
(-0.0566274 0 2.51648)
(-0.552502 -8.43823e-20 2.91139)
(-1.31954 7.59656e-20 3.12829)
(-2.08313 -1.07774e-20 3.26016)
(-2.86537 3.64909e-20 3.32368)
(-3.65071 0 3.33227)
(-4.43111 8.63222e-20 3.29612)
(-5.20024 1.36363e-18 3.22235)
(-5.95313 -2.40532e-18 3.11583)
(-6.68598 1.29327e-18 2.98003)
(-7.39488 -9.0882e-19 2.81711)
(-8.07513 1.37007e-18 2.62793)
(-8.72067 -5.46086e-19 2.41227)
(-9.32399 -3.30815e-19 2.16934)
(-9.87558 9.59212e-19 1.89806)
(-10.364 -1.36413e-18 1.59744)
(-10.7764 1.07035e-18 1.26709)
(-11.0985 -5.71861e-19 0.907776)
(-11.3159 3.86665e-19 0.522024)
(-11.4138 0 0.114426)
(-11.3779 -6.26281e-21 -0.309074)
(-11.2107 0 -0.744881)
(-10.9083 -1.59528e-19 -1.19005)
(-10.4701 0 -1.64836)
(-9.89618 2.81495e-20 -2.1316)
(-9.1877 4.53766e-20 -2.65815)
(-8.34792 1.37765e-20 -3.24851)
(-7.37439 3.17861e-21 -3.91854)
(-6.26848 2.16557e-21 -4.67294)
(-5.30391 3.89401e-22 -5.42653)
(0.143664 -4.30112e-21 3.17151)
(-0.262408 0 3.56333)
(-1.00381 0 3.76971)
(-1.70684 -3.00777e-20 3.89162)
(-2.41888 -6.59032e-20 3.94539)
(-3.1273 -1.80005e-19 3.94346)
(-3.82868 0 3.89522)
(-4.51998 -2.56458e-19 3.807)
(-5.19882 0 3.68316)
(-5.86293 1.3027e-18 3.52654)
(-6.50931 -1.65647e-18 3.3387)
(-7.13374 -4.97329e-19 3.11994)
(-7.73007 2.3499e-18 2.8693)
(-8.29085 -1.18419e-18 2.58541)
(-8.80646 7.10372e-19 2.26666)
(-9.2651 -1.45901e-18 1.91159)
(-9.65342 3.70571e-19 1.51955)
(-9.95673 4.14595e-19 1.09132)
(-10.1597 7.56289e-21 0.629994)
(-10.2468 -4.40348e-19 0.142015)
(-10.2046 -1.29832e-20 -0.363613)
(-10.0417 -1.95333e-19 -0.878479)
(-9.75701 -1.71925e-19 -1.39668)
(-9.35552 4.3818e-20 -1.9213)
(-8.84348 9.73528e-20 -2.46455)
(-8.22828 3.79214e-20 -3.04466)
(-7.52162 -4.62302e-20 -3.67858)
(-6.73537 1.21546e-20 -4.37257)
(-5.88394 -2.24881e-21 -5.11606)
(-5.17676 7.84413e-22 -5.80761)
(0.375805 1.29876e-19 3.81818)
(0.0739291 -1.22885e-19 4.1851)
(-0.636644 6.95192e-19 4.36993)
(-1.26864 -5.50774e-19 4.47429)
(-1.9042 1.47072e-18 4.51416)
(-2.53117 6.49984e-19 4.50011)
(-3.15009 -1.75684e-18 4.44004)
(-3.76078 -2.73985e-18 4.3393)
(-4.36297 3.03994e-18 4.20135)
(-4.95539 8.56667e-19 4.0278)
(-5.53591 -1.60683e-18 3.81936)
(-6.10106 1.4933e-18 3.57551)
(-6.64491 -1.90144e-18 3.29428)
(-7.16001 1.27824e-18 2.97346)
(-7.63682 -7.64185e-19 2.61068)
(-8.06339 1.56304e-18 2.2039)
(-8.4261 0 1.75221)
(-8.70966 0 1.25668)
(-8.89722 -4.66302e-19 0.721679)
(-8.97212 -1.20371e-20 0.156749)
(-8.92204 4.54393e-19 -0.42455)
(-8.76233 -1.00501e-19 -1.01014)
(-8.49398 4.65716e-19 -1.59085)
(-8.12753 8.17934e-20 -2.16889)
(-7.67405 -6.54058e-20 -2.75722)
(-7.14482 -6.35864e-20 -3.37388)
(-6.55599 9.77364e-21 -4.03249)
(-5.9285 -1.21898e-20 -4.73164)
(-5.28154 0 -5.44913)
(-4.77502 3.61764e-22 -6.07386)
(0.623462 8.84654e-19 4.44064)
(0.435216 -7.85417e-19 4.76353)
(-0.235529 1.03178e-18 4.91823)
(-0.783985 -9.89056e-19 5.00014)
(-1.33589 0 5.02406)
(-1.87582 -2.1252e-18 4.99751)
(-2.40787 2.06427e-18 4.92672)
(-2.93409 0 4.8159)
(-3.45589 4.58209e-19 4.66712)
(-3.97291 3.16383e-20 4.4805)
(-4.4836 2.33507e-18 4.25571)
(-4.98531 -3.85221e-19 3.99146)
(-5.47277 -5.75902e-19 3.68464)
(-5.93865 0 3.33193)
(-6.37373 -8.28213e-19 2.93026)
(-6.76624 8.68147e-19 2.47685)
(-7.10241 4.9398e-20 1.97039)
(-7.3663 3.65166e-20 1.41191)
(-7.53894 1.508e-20 0.806712)
(-7.60157 -1.70214e-20 0.16766)
(-7.54351 -7.5751e-19 -0.48544)
(-7.38679 2.3172e-19 -1.13602)
(-7.13482 -1.01471e-19 -1.77041)
(-6.80337 -1.76285e-19 -2.39057)
(-6.40692 0 -3.01119)
(-5.95833 5.94e-20 -3.65075)
(-5.47476 5.2546e-20 -4.31995)
(-4.98259 -8.81924e-21 -5.01072)
(-4.49895 -6.45338e-22 -5.69303)
(-4.1581 -4.15669e-22 -6.25318)
(0.874532 1.51228e-18 5.0113)
(0.807387 -3.31938e-18 5.28177)
(0.187119 1.89278e-18 5.40216)
(-0.264227 -1.61579e-18 5.45997)
(-0.725006 -4.42577e-19 5.46795)
(-1.17165 1.97099e-18 5.42985)
(-1.61178 -6.9829e-19 5.35033)
(-2.04905 0 5.23237)
(-2.48618 -8.8229e-19 5.07634)
(-2.92365 -5.07826e-19 4.88076)
(-3.36035 -3.10301e-18 4.64409)
(-3.79428 2.4782e-18 4.36442)
(-4.22102 8.23163e-19 4.03741)
(-4.63377 -1.51941e-18 3.65847)
(-5.02401 0 3.2236)
(-5.38055 9.68216e-19 2.72908)
(-5.68986 -1.99893e-18 2.17288)
(-5.93521 -1.07335e-18 1.55569)
(-6.09441 -5.7639e-19 0.88345)
(-6.1445 5.90842e-19 0.173086)
(-6.07739 5.49726e-19 -0.547614)
(-5.92552 -2.52678e-19 -1.25696)
(-5.69196 1.04757e-19 -1.93561)
(-5.39731 -2.89927e-19 -2.58654)
(-5.05799 0 -3.22778)
(-4.68645 -4.7293e-20 -3.87917)
(-4.29801 1.20868e-20 -4.54876)
(-3.92262 1.98172e-20 -5.22234)
(-3.56804 -3.04455e-21 -5.86423)
(-3.37008 0 -6.36376)
(1.12233 -1.74689e-18 5.50674)
(1.18319 1.8945e-21 5.72386)
(0.622171 -7.6516e-20 5.80875)
(0.281878 0 5.84403)
(-0.0807269 -2.35972e-18 5.83783)
(-0.427682 5.15512e-18 5.79048)
(-0.77086 -4.59815e-18 5.70503)
(-1.11469 5.20562e-18 5.58342)
(-1.46295 -4.10572e-18 5.42424)
(-1.81678 3.35623e-18 5.22412)
(-2.17537 0 4.98034)
(-2.5371 0 4.69048)
(-2.89833 -1.68612e-18 4.349)
(-3.25321 1.67019e-18 3.95007)
(-3.59427 -2.44559e-20 3.48862)
(-3.91152 9.95834e-19 2.95971)
(-4.19239 -4.05196e-20 2.36009)
(-4.41961 5.63134e-19 1.68957)
(-4.56663 1.25988e-18 0.954367)
(-4.60367 -3.37334e-19 0.175685)
(-4.52819 3.14246e-19 -0.611342)
(-4.38612 2.71673e-19 -1.37253)
(-4.17642 0 -2.08526)
(-3.92287 3.60935e-19 -2.75586)
(-3.64221 -4.08977e-20 -3.40746)
(-3.34531 -1.53541e-20 -4.06215)
(-3.04368 -2.46066e-20 -4.72534)
(-2.77071 -9.57818e-21 -5.37705)
(-2.51726 8.37228e-22 -5.97631)
(-2.44459 -8.62293e-22 -6.41848)
(1.36132 4.88697e-18 5.91503)
(1.55609 -5.51842e-18 6.07551)
(1.06081 3.27549e-18 6.12499)
(0.847273 -2.2657e-18 6.14285)
(0.588315 2.25931e-18 6.12499)
(0.347382 -2.46814e-18 6.07203)
(0.105546 -1.41448e-18 5.98447)
(-0.141188 5.88293e-18 5.86341)
(-0.397182 -5.76533e-18 5.70568)
(-0.663937 1.15194e-18 5.5058)
(-0.940687 0 5.25982)
(-1.22599 3.32272e-18 4.96504)
(-1.5166 -3.5352e-18 4.61462)
(-1.80761 1.84557e-18 4.202)
(-2.09297 -2.10723e-18 3.72073)
(-2.36464 -1.18035e-18 3.16416)
(-2.61237 2.45367e-18 2.52714)
(-2.81915 0 1.80817)
(-2.95163 0 1.01429)
(-2.97176 -7.86556e-19 0.172818)
(-2.89448 -7.07576e-19 -0.675576)
(-2.77292 3.07983e-19 -1.47884)
(-2.5982 -2.65535e-19 -2.21493)
(-2.39382 4.34431e-21 -2.89534)
(-2.17497 9.12977e-20 -3.54938)
(-1.95099 -1.66559e-20 -4.202)
(-1.72897 7.18248e-20 -4.85548)
(-1.54633 -3.14483e-21 -5.48447)
(-1.37342 3.63783e-21 -6.04097)
(-1.40715 0 -6.42776)
(1.58016 2.73473e-18 6.22935)
(1.91673 -3.57072e-18 6.31661)
(1.49438 5.56532e-18 6.34828)
(1.42675 -4.80347e-18 6.34544)
(1.27235 -4.86956e-19 6.32165)
(1.14436 5.11252e-18 6.26911)
(1.00702 -1.5155e-18 6.1853)
(0.859318 -4.53496e-18 6.0701)
(0.697371 3.65716e-18 5.91918)
(0.519664 0 5.72494)
(0.327584 -1.62468e-18 5.48193)
(0.121923 1.91495e-18 5.18682)
(-0.0935905 -1.86236e-18 4.83278)
(-0.314275 0 4.41259)
(-0.535805 1.16388e-18 3.91875)
(-0.752335 1.3181e-18 3.34307)
(-0.958088 -4.84627e-18 2.6783)
(-1.13841 1.51157e-18 1.92112)
(-1.24459 4.30021e-19 1.07525)
(-1.23608 4.48906e-19 0.172711)
(-1.17204 7.93709e-19 -0.728413)
(-1.08996 -3.39638e-19 -1.56463)
(-0.967765 2.89014e-19 -2.31613)
(-0.824628 3.17486e-21 -2.99994)
(-0.672731 4.66825e-20 -3.65189)
(-0.520387 -2.51922e-20 -4.30001)
(-0.371852 -7.59341e-20 -4.94357)
(-0.266405 -2.03479e-20 -5.55257)
(-0.162153 -1.20447e-20 -6.06661)
(-0.276701 -3.9789e-21 -6.40109)
(1.75373 -7.16716e-22 6.43596)
(2.26061 -2.43313e-19 6.44654)
(1.92142 2.41809e-18 6.46461)
(2.00205 -3.07724e-18 6.44)
(1.96474 2.50252e-18 6.41684)
(1.95154 -1.47684e-18 6.37177)
(1.91935 0 6.29897)
(1.86959 0 6.19544)
(1.80084 -1.24945e-18 6.05626)
(1.71244 -1.39817e-18 5.87297)
(1.60587 1.53989e-18 5.63895)
(1.48269 -1.71628e-18 5.34899)
(1.34627 9.62099e-19 4.99739)
(1.20133 -1.10969e-18 4.57671)
(1.05163 2.35149e-18 4.07932)
(0.901928 4.67127e-20 3.49686)
(0.754664 2.17465e-18 2.82103)
(0.616099 8.1778e-19 2.04509)
(0.550296 -1.3286e-18 1.16272)
(0.595028 4.90874e-19 0.19509)
(0.622976 0 -0.752684)
(0.647335 -5.36394e-19 -1.61635)
(0.699062 1.43015e-19 -2.38094)
(0.768674 -1.85313e-19 -3.06804)
(0.847833 -9.87041e-20 -3.7182)
(0.929866 4.21979e-20 -4.36071)
(1.00909 0 -4.9929)
(1.05375 0 -5.58122)
(1.09316 2.31972e-20 -6.05757)
(0.93219 3.8199e-21 -6.34349)
(1.89269 -3.35832e-18 6.52801)
(2.55347 2.40726e-18 6.4593)
(2.3574 8.78499e-19 6.44866)
(2.56603 -1.78507e-18 6.4121)
(2.66048 7.29542e-19 6.4002)
(2.75887 1.4208e-19 6.37346)
(2.82974 -1.74033e-18 6.32125)
(2.87446 1.04842e-18 6.23673)
(2.89496 1.16311e-18 6.11424)
(2.89255 1.29473e-18 5.94568)
(2.86928 -1.44056e-18 5.7239)
(2.82738 0 5.44249)
(2.77036 -1.79801e-18 5.09555)
(2.70272 9.67084e-19 4.6759)
(2.62842 3.96417e-20 4.17611)
(2.55209 -1.72839e-18 3.58813)
(2.47647 -2.70325e-22 2.90347)
(2.40754 -7.17401e-19 2.11368)
(2.38587 -3.8648e-19 1.22017)
(2.41715 2.11733e-19 0.252467)
(2.41722 1.86342e-19 -0.718337)
(2.3913 6.30378e-19 -1.60621)
(2.37029 -2.03224e-19 -2.38732)
(2.36246 -5.86913e-20 -3.08411)
(2.36839 -1.84107e-19 -3.73894)
(2.3851 -5.65615e-20 -4.38206)
(2.40533 2.78064e-20 -5.00909)
(2.40028 1.51998e-20 -5.58136)
(2.38942 -1.48842e-20 -6.03004)
(2.19318 3.82826e-21 -6.27533)
(1.9734 -1.15445e-19 6.5802)
(2.71374 -1.06094e-18 6.34117)
(2.77402 -6.94795e-19 6.29223)
(3.11112 3.11156e-18 6.25841)
(3.34808 -6.07245e-19 6.26847)
(3.55452 2.42045e-18 6.2724)
(3.72313 -1.69756e-18 6.25136)
(3.85727 -9.86568e-19 6.1946)
(3.96169 -5.84769e-19 6.0952)
(4.04015 5.70044e-19 5.94589)
(4.09592 1.34073e-18 5.73994)
(4.13191 -7.75301e-19 5.4706)
(4.15156 7.68794e-19 5.13142)
(4.15911 8.8698e-19 4.71549)
(4.15855 -9.69329e-19 4.21562)
(4.15411 1.09375e-20 3.62408)
(4.14872 -1.15225e-18 2.93237)
(4.14589 3.16427e-19 2.13228)
(4.15816 -3.35335e-19 1.22969)
(4.18404 0 0.259737)
(4.16361 6.49413e-19 -0.69973)
(4.09485 0 -1.57967)
(4.00954 -5.86241e-20 -2.36047)
(3.93068 5.04482e-21 -3.06299)
(3.8706 2.17626e-19 -3.72565)
(3.83133 5.32367e-20 -4.37428)
(3.80402 1.44112e-20 -4.99992)
(3.75961 0 -5.55932)
(3.70956 9.18672e-22 -5.98347)
(3.48373 -4.57641e-21 -6.19533)
(9.99402 -6.08901e-21 0.109088)
(9.98433 1.22509e-21 0.217718)
(9.96522 -2.47394e-21 0.327446)
(9.93711 0 0.439721)
(9.90149 1.00417e-20 0.555827)
(9.8589 -1.50996e-20 0.676996)
(9.8094 -6.20824e-23 0.804426)
(9.75307 -1.03713e-20 0.93937)
(9.6901 2.07481e-20 1.08313)
(9.62068 -1.31796e-21 1.23706)
(9.54498 0 1.40257)
(9.46326 -2.65194e-21 1.58123)
(9.3758 0 1.77475)
(9.28292 0 1.98501)
(9.18504 1.09504e-20 2.21414)
(9.08269 -2.17909e-20 2.46456)
(8.97649 -3.49726e-19 2.73905)
(8.86709 6.52427e-19 3.04087)
(8.75575 3.44711e-19 3.37406)
(8.64312 -5.16035e-19 3.74298)
(8.53012 -1.70607e-19 4.15289)
(8.41958 6.5118e-19 4.61163)
(8.31418 -9.59641e-19 5.12892)
(8.21616 -1.23525e-18 5.71578)
(8.13025 -5.86639e-19 6.3871)
(8.06378 5.71801e-19 7.16624)
(8.04684 -5.22064e-20 8.08694)
(8.06972 -5.05294e-19 9.20882)
(8.74659 -4.72315e-19 10.5688)
(9.24515 0 12.959)
(9.99437 2.37092e-21 0.113226)
(9.98583 -4.73794e-21 0.225953)
(9.96881 7.16117e-21 0.339787)
(9.94367 -2.40711e-21 0.456199)
(9.91187 0 0.576484)
(9.87401 7.37553e-21 0.701893)
(9.8302 -4.97508e-21 0.83362)
(9.78055 9.91766e-21 0.9729)
(9.72531 -2.50379e-21 1.12101)
(9.66476 5.06724e-21 1.2793)
(9.59919 -5.16282e-21 1.44915)
(9.52894 2.62287e-21 1.63209)
(9.45443 2.06565e-20 1.82976)
(9.37615 -1.03947e-20 2.04399)
(9.29469 -4.15519e-20 2.27682)
(9.21081 3.13792e-20 2.53056)
(9.12539 -8.27976e-20 2.80786)
(9.03952 1.24002e-19 3.11183)
(8.95489 0 3.44628)
(8.87286 -1.62814e-19 3.81528)
(8.79542 2.31515e-19 4.22356)
(8.7264 7.68021e-20 4.67809)
(8.67037 5.97852e-19 5.18753)
(8.63297 -2.71747e-19 5.76132)
(8.6237 7.64814e-19 6.41088)
(8.65728 4.8408e-19 7.15195)
(8.7729 0 8.00316)
(8.95012 0 8.97479)
(9.49937 2.17061e-18 10.0036)
(10.0424 -2.0176e-18 10.9358)
(9.99474 0 0.117003)
(9.98741 6.08082e-22 0.233459)
(9.97257 -5.23299e-21 0.351009)
(9.95054 -9.30215e-21 0.471145)
(9.92273 -9.36714e-21 0.595163)
(9.88976 0 0.724317)
(9.85183 -9.50179e-21 0.859797)
(9.80909 -1.92273e-20 1.00281)
(9.76183 0 1.15461)
(9.71041 1.9523e-20 1.31648)
(9.65521 -2.94371e-20 1.48979)
(9.59669 9.91595e-21 1.67599)
(9.53538 0 1.87665)
(9.47193 9.67645e-21 2.09349)
(9.40712 0 2.32841)
(9.34192 1.9969e-20 2.58357)
(9.27745 7.79006e-20 2.86139)
(9.21519 0 3.16469)
(9.15715 4.58777e-19 3.49685)
(9.10545 -3.03491e-19 3.86142)
(9.06293 2.84606e-19 4.26237)
(9.03391 -8.56609e-19 4.70516)
(9.02401 1.56068e-20 5.19642)
(9.04067 1.04403e-18 5.74271)
(9.09434 0 6.35014)
(9.19788 0 7.02411)
(9.37849 0 7.76563)
(9.60619 2.30114e-18 8.55215)
(9.98066 -1.73676e-18 9.34902)
(10.5209 -3.4925e-20 10.0914)
(9.99512 4.42942e-21 0.120375)
(9.98905 4.48494e-21 0.240147)
(9.97647 -8.97349e-21 0.360975)
(9.95767 4.59047e-21 0.484368)
(9.93398 1.82541e-20 0.611618)
(9.90606 9.19356e-21 0.743965)
(9.87416 -9.16426e-21 0.882584)