/*--------------------------------*- C++ -*----------------------------------*\
| =========                 |                                                 |
| \\      /  F ield         | OpenFOAM: The Open Source CFD Toolbox           |
|  \\    /   O peration     | Version:  5.x                                   |
|   \\  /    A nd           | Web:      www.OpenFOAM.org                      |
|    \\/     M anipulation  |                                                 |
\*---------------------------------------------------------------------------*/
FoamFile
{
    version     2.0;
    format      ascii;
    class       volScalarField;
    location    "0.2";
    object      p;
}
// * * * * * * * * * * * * * * * * * * * * * * * * * * * * * * * * * * * * * //

dimensions      [0 2 -2 0 0 0 0];

internalField   nonuniform List<scalar> 
2790
(
67.1209
66.8341
66.8936
67.2879
67.9052
68.6981
69.6609
70.7943
72.0947
73.5561
75.1722
76.9357
78.8384
80.87
83.0177
85.2659
87.5956
89.984
92.4039
94.8239
97.208
99.5166
101.708
103.738
105.566
107.155
108.474
109.504
110.221
110.703
66.9261
66.7492
66.8332
67.2246
67.8383
68.6284
69.5873
70.7153
72.0094
73.4639
75.0724
76.828
78.7225
80.7461
82.8862
85.1278
87.4523
89.8375
92.2569
94.6798
97.0709
99.3913
101.599
103.651
105.504
107.121
108.468
109.528
110.257
110.764
66.7407
66.6337
66.7366
67.1183
67.7199
68.4984
69.4439
70.556
71.8315
73.2652
74.8508
76.5815
78.4493
80.4447
82.5558
84.7679
87.0635
89.4215
91.8168
94.2201
96.598
98.9129
101.124
103.189
105.064
106.709
108.086
109.176
109.905
110.413
66.5347
66.459
66.5747
66.9485
67.5366
68.3003
69.2282
70.3188
71.5691
72.9739
74.5269
76.2214
78.0496
80.002
82.0674
84.2319
86.4789
88.7887
91.138
93.4995
95.842
98.1302
100.325
102.385
104.267
105.926
107.318
108.421
109.131
109.603
66.2986
66.2375
66.3622
66.7294
67.3024
68.0469
68.9515
70.0139
71.231
72.5976
74.1075
75.7538
77.5288
79.4234
81.4265
83.5252
85.7039
87.9443
90.225
92.5211
94.8042
97.0416
99.1971
101.231
103.098
104.755
106.148
107.254
107.945
108.379
66.0284
65.9733
66.101
66.4594
67.0143
67.7349
68.6105
69.6384
70.8152
72.1354
73.5925
75.1798
76.8893
78.7121
80.6374
82.6527
84.7435
86.893
89.0816
91.2868
93.4831
95.6412
97.7281
99.7067
101.535
103.168
104.55
105.658
106.346
106.772
65.722
65.6682
65.7938
66.1405
66.6743
67.3671
68.2089
69.1965
70.326
71.5917
72.9869
74.5045
76.1365
77.8736
79.7054
81.6197
83.6028
85.6389
87.7102
89.7964
91.875
93.9202
95.9032
97.7912
99.5473
101.13
102.486
103.598
104.309
104.792
65.3789
65.3235
65.4428
65.7747
66.2847
66.9459
67.7491
68.6907
69.7664
70.9699
72.2944
73.7321
75.2748
76.913
78.6359
80.4317
82.2867
84.186
86.1131
88.0494
89.9749
91.8675
93.7029
95.4546
97.093
98.5869
99.8892
100.998
101.751
102.342
64.9997
64.9406
65.0504
65.3645
65.8477
66.4737
67.2338
68.1242
69.1399
70.2741
71.5195
72.8679
74.3103
75.8366
77.4359
79.0956
80.8022
82.5407
84.295
86.0476
87.78
89.473
91.1067
92.6614
94.1176
95.4592
96.6559
97.7302
98.5271
99.306
64.5851
64.521
64.6186
64.9121
65.3657
65.9533
66.6663
67.5005
68.4506
69.509
70.6678
71.9179
73.2497
74.6522
76.1136
77.6206
79.1587
80.7122
82.2644
83.7973
85.2924
86.7315
88.0972
89.3755
90.5573
91.645
92.6356
93.5923
94.381
95.3611
64.1364
64.0663
64.1498
64.4202
64.8415
65.3877
66.0499
66.8237
67.703
68.6798
69.745
70.889
72.1009
73.3687
74.6792
76.0179
77.3685
78.7138
80.0347
81.3111
82.522
83.6467
84.6664
85.5677
86.3473
87.0245
87.6297
88.2904
88.9349
90.1338
63.6555
63.5785
63.6461
63.8914
64.2781
64.78
65.3882
66.0978
66.902
67.792
68.7579
69.7888
70.8727
71.9963
73.1446
74.301
75.4473
76.5629
77.6253
78.6098
79.4896
80.2366
80.8235
81.2277
81.4385
81.4767
81.3973
81.4084
81.5678
82.851
63.1439
63.0596
63.11
63.3283
63.6783
64.1338
64.6853
65.3275
66.0528
66.8518
67.7133
68.6254
69.5748
70.5462
71.523
72.4859
73.4135
74.2815
75.062
75.7234
76.2292
76.5384
76.605
76.3817
75.8252
74.9186
73.6905
72.3917
71.2784
72.2309
62.604
62.5118
62.544
62.7338
63.0455
63.4525
63.9451
64.5173
65.1609
65.8654
66.6188
67.4078
68.2176
69.0311
69.8292
70.5901
71.2887
71.8957
72.3769
72.6914
72.79
72.6122
72.0836
71.1122
69.5852
67.3775
64.3586
60.5993
56.3292
55.2145
62.0378
61.9375
61.9506
62.1109
62.3828
62.7399
63.1717
63.672
64.2317
64.8394
65.482
66.1449
66.8118
67.4636
68.0789
68.6327
69.0961
69.4347
69.6068
69.5615
69.2342
68.5417
67.3729
65.5749
62.9282
59.1099
53.6028
45.6843
33.9052
21.7
-93.5047
-94.1563
-95.4393
-97.3694
-99.9773
-103.163
-106.695
-110.19
-113.124
-114.881
-114.839
-112.485
-107.551
-100.051
-90.3582
-79.1426
-67.2208
-55.3969
-44.3275
-34.4518
-25.9916
-18.5354
-12.0316
-7.01655
-3.35939
-0.831414
0.761103
1.57961
1.7482
1.36726
-93.4914
-94.1946
-95.5643
-97.5838
-100.322
-103.67
-107.393
-111.092
-114.224
-116.148
-116.219
-113.916
-108.975
-101.42
-91.6401
-80.3169
-68.2733
-56.3179
-45.1138
-35.1084
-26.5266
-18.9429
-12.3561
-7.29909
-3.59585
-1.02469
0.60651
1.46081
1.6648
1.35508
-93.876
-94.7335
-96.2972
-98.5216
-101.509
-105.136
-109.164
-113.176
-116.601
-118.763
-118.98
-116.707
-111.693
-103.954
-93.9211
-82.3167
-69.9926
-57.7733
-46.3317
-36.1231
-27.3251
-19.5291
-12.8233
-7.68606
-3.91061
-1.27713
0.408379
1.31318
1.56757
1.34068
-94.8062
-95.8814
-97.6922
-100.207
-103.55
-107.584
-112.057
-116.527
-120.382
-122.89
-123.316
-121.08
-115.924
-107.859
-97.3914
-85.3101
-72.5174
-59.8675
-48.0524
-37.5324
-28.3851
-20.2887
-13.4498
-8.20288
-4.33354
-1.6199
0.136724
1.10905
1.43145
1.30236
-96.4061
-97.7209
-99.798
-102.669
-106.46
-111.021
-116.079
-121.154
-125.572
-128.531
-129.218
-127.001
-121.615
-113.073
-101.986
-89.237
-75.7963
-62.5608
-50.2441
-39.2954
-29.6781
-21.2128
-14.2199
-8.83757
-4.85283
-2.04101
-0.196787
0.8591
1.26559
1.24644
-98.7682
-100.301
-102.639
-105.912
-110.232
-115.432
-121.213
-127.039
-132.162
-135.679
-136.672
-134.437
-128.698
-119.511
-107.615
-94.0094
-79.7515
-65.789
-52.8518
-41.3425
-31.1454
-22.2905
-15.1187
-9.57926
-5.46125
-2.53586
-0.589655
0.563932
1.06898
1.16999
-101.912
-103.57
-106.144
-109.846
-114.759
-120.699
-127.33
-134.052
-140.017
-144.191
-145.522
-143.213
-136.984
-126.98
-114.099
-99.4699
-84.2529
-69.4477
-55.7873
-43.5546
-32.7157
-23.5172
-16.1297
-10.4132
-6.14779
-3.0962
-1.03577
0.227846
0.844381
1.07356
-105.619
-107.31
-110.093
-114.241
-119.8
-126.567
-134.165
-141.916
-148.853
-153.776
-155.463
-153.014
-146.146
-135.175
-121.168
-105.391
-89.1183
-73.3853
-58.8831
-45.8149
-34.3743
-24.8553
-17.2275
-11.3207
-6.89884
-3.71216
-1.52806
-0.144398
0.59457
0.957632
-109.515
-111.129
-114.11
-118.72
-124.968
-132.635
-141.297
-150.194
-158.22
-163.971
-166.01
-163.351
-155.707
-143.665
-128.462
-111.48
-94.1169
-77.4002
-61.9259
-48.0391
-36.1135
-26.2563
-18.3795
-12.2794
-7.69828
-4.37206
-2.05809
-0.546962
0.323121
0.823536
-112.926
-114.475
-117.691
-122.784
-129.754
-138.368
-148.158
-158.279
-167.479
-174.103
-176.467
-173.552
-165.025
-151.903
-135.563
-117.409
-98.9713
-81.2024
-64.7743
-50.2278
-37.8432
-27.6618
-19.5482
-13.2635
-8.52781
-5.06263
-2.61626
-0.973131
0.0341934
0.673266
-115.268
-116.785
-120.287
-125.88
-133.583
-143.148
-154.07
-165.43
-175.822
-183.295
-185.923
-182.762
-173.386
-159.309
-141.992
-122.851
-103.32
-84.572
-67.3618
-52.2497
-39.4704
-29.0113
-20.693
-14.2452
-9.36745
-5.76931
-3.19194
-1.41539
-0.2675
0.509457
-115.955
-117.579
-121.42
-127.506
-135.909
-146.346
-158.297
-170.764
-182.19
-190.344
-193.154
-189.981
-180.176
-165.438
-147.27
-127.28
-106.846
-87.3006
-69.5022
-53.9729
-40.9059
-30.2447
-21.7731
-15.1956
-10.1963
-6.47657
-3.77362
-1.8655
-0.576707
0.335365
-114.808
-116.598
-120.845
-127.434
-136.446
-147.628
-160.416
-173.76
-185.998
-194.741
-197.783
-194.65
-184.732
-169.541
-150.79
-130.152
-109.165
-89.1599
-71.0319
-55.282
-42.0704
-31.3071
-22.7498
-16.0866
-10.9933
-7.16854
-4.34932
-2.31472
-0.887693
0.154844
-111.781
-113.793
-118.534
-125.619
-135.176
-146.948
-160.334
-174.252
-186.969
-196.079
-199.258
-195.991
-186.049
-170.837
-151.981
-131.187
-110.074
-89.9857
-71.8291
-56.089
-42.901
-32.1534
-23.5902
-16.8935
-11.7395
-7.83041
-4.90777
-2.7548
-1.19503
-0.0282282
-106.643
-109.548
-114.83
-122.313
-132.331
-144.522
-158.193
-172.234
-184.899
-193.899
-197.07
-193.811
-184.15
-169.296
-150.773
-130.284
-109.478
-89.6929
-71.8253
-56.3406
-43.3565
-32.7516
-24.2687
-17.5958
-12.4186
-8.4495
-5.43948
-3.17909
-1.49474
-0.21105
61.4363
61.3276
61.3207
61.45
61.6805
61.9856
62.3545
62.7803
63.2531
63.7608
64.2892
64.8223
65.3422
65.8279
66.2557
66.5975
66.8203
66.8846
66.7414
66.3295
65.5691
64.3539
62.5354
59.8965
56.0995
50.5805
42.2646
28.8645
2.75325
-69.1733
60.7927
60.6751
60.6473
60.744
60.9312
61.1822
61.4856
61.8339
62.2168
62.6211
63.0316
63.4311
63.8001
64.116
64.3525
64.4787
64.4583
64.2467
63.7887
63.0144
61.8318
60.1167
57.6941
54.3063
49.5505
42.7589
32.7259
17.4109
-4.97631
-37.3976
60.1118
59.9852
59.9357
59.9988
60.1413
60.3365
60.5726
60.8417
61.1327
61.4316
61.7224
61.9867
62.2036
62.3491
62.3946
62.3071
62.0473
61.5673
60.8074
59.692
58.1228
55.9688
53.0499
49.1125
43.7932
36.5807
26.8044
13.7628
-1.95554
-19.9492
59.395
59.2593
59.1875
59.2162
59.3131
59.4514
59.6192
59.808
60.0061
60.199
60.3697
60.499
60.5651
60.5423
60.401
60.1063
59.6174
58.8843
57.8455
56.4243
54.5228
52.0148
48.7357
44.4707
38.9461
31.8367
22.806
11.4871
-2.2658
-18.9482
58.6439
58.499
58.4048
58.3986
58.4492
58.5302
58.6292
58.7374
58.8427
58.9301
58.9819
58.9785
58.8971
58.7114
58.3909
57.9
57.1975
56.2335
54.9473
53.265
51.0952
48.3249
44.8143
40.3935
34.8622
27.995
19.5536
9.24817
-3.18344
-17.5797
57.8606
57.7066
57.59
57.5487
57.5529
57.5765
57.6071
57.6352
57.6488
57.6324
57.5682
57.4359
57.2127
56.8719
56.383
55.7108
54.8148
53.647
52.1501
50.256
47.8837
44.9368
41.3022
36.8492
31.4321
24.8943
17.0827
7.85993
-2.83847
-14.6219
57.0476
56.8847
56.7458
56.6696
56.6278
56.5946
56.5575
56.5072
56.4312
56.314
56.1379
55.8825
55.5251
55.0394
54.3957
53.56
52.4939
51.1524
49.4836
47.4276
44.9154
41.8684
38.1986
33.8104
28.6045
22.4854
15.3763
7.23786
-1.92486
-11.8035
56.2078
56.0363
55.8755
55.765
55.6779
55.5891
55.486
55.3594
55.1969
54.9832
54.7007
54.3295
53.8473
53.2289
52.446
51.4668
50.2556
48.772
46.9706
44.8003
42.205
39.1232
35.4901
31.2399
26.3105
20.6505
14.2286
7.04445
-0.879288
-9.29314
55.3445
55.1648
54.9827
54.8388
54.7077
54.5649
54.3982
54.1984
53.9534
53.6484
53.2663
52.7878
52.1918
51.4545
50.5495
49.4477
48.1173
46.5228
44.6259
42.385
39.7558
36.6928
33.1508
29.0875
24.4679
19.269
13.4855
7.13705
0.261079
-6.9321
54.4615
54.274
54.0716
53.8955
53.722
53.5274
53.3
53.0308
52.7082
52.3181
51.8441
51.268
50.5701
49.7285
48.7191
47.5162
46.0919
44.4164
42.4582
40.1846
37.5627
34.5602
31.1477
27.3008
23.0034
18.251
13.0543
7.4438
1.46409
-4.71457
53.5628
53.3682
53.1465
52.9397
52.7258
52.4823
52.1976
51.8634
51.4688
51.0005
50.4431
49.7799
48.9927
48.0618
46.9659
45.6827
44.1887
42.4594
40.4701
38.1962
35.6141
32.7029
29.4454
25.8302
21.8541
17.5241
12.86
7.89619
2.67726
-2.66163
52.653
52.4519
52.2122
51.9765
51.7247
51.4353
51.0973
50.7031
50.2427
49.7036
49.0719
48.3324
47.4687
46.4635
45.2985
43.9548
42.4132
40.6544
38.6597
36.4115
33.8944
31.0961
28.0086
24.6296
20.9644
17.0267
12.8402
8.43929
3.86548
-0.774196
51.737
51.5301
51.2737
51.0112
50.7241
50.3923
50.0054
49.5566
49.0368
48.4349
47.7382
46.9332
46.0057
44.9408
43.7231
42.3371
40.7677
39.0003
37.0214
34.8195
32.3855
29.7138
26.803
23.6571
20.2863
16.7078
12.9463
9.034
5.00823
0.953581
50.8198
50.6079
50.3364
50.0492
49.7299
49.3594
48.9283
48.4305
47.8581
47.2013
46.4489
45.5893
44.6102
43.4992
42.2439
40.8319
39.2518
37.4932
35.5471
33.4067
31.068
28.5303
25.7968
22.8754
19.779
16.5262
13.1407
9.65184
6.09228
2.52882
49.9069
49.6907
49.4058
49.0963
48.7478
48.3425
47.872
47.331
46.7129
46.0091
45.2102
44.3062
43.2871
42.1427
40.8632
39.4395
37.8631
36.1273
34.2268
32.1587
29.9226
27.5213
24.9611
22.252
19.4083
16.4483
13.3941
10.2719
7.10945
3.95979
49.0039
48.7844
48.4876
48.1583
47.7839
47.3478
46.8427
46.2644
45.6072
44.8642
44.0274
43.0888
42.0401
40.8736
39.5819
38.1583
36.5975
34.8953
33.0497
31.0606
28.9303
26.6641
24.2698
21.7589
19.1456
16.4472
13.6842
10.8789
8.05531
5.25535
48.1169
47.8947
47.5878
47.2412
46.844
46.3812
45.8463
45.2362
44.5465
43.7716
42.9051
41.9406
40.8719
39.6932
38.3992
36.9857
35.4495
33.7891
32.0045
30.0979
28.0735
25.938
23.7003
21.3721
18.9671
16.5016
13.9934
11.4622
8.92806
6.42441
47.2517
47.0277
46.7123
46.3507
45.934
45.4484
44.8884
44.2519
43.5358
42.7358
41.847
40.8647
39.7842
38.6017
37.3137
35.918
34.4133
32.8
31.0799
29.2566
27.3357
25.3246
23.2328
21.0714
18.8537
16.5942
14.3088
12.0143
9.72767
7.4756
46.4147
46.1895
45.8672
45.4931
45.0599
44.5551
43.9744
43.3166
42.5798
41.7609
40.8564
39.8631
38.7779
37.5984
36.323
34.9509
33.4825
31.9195
30.2651
28.5239
26.7022
24.8079
22.8502
20.8401
18.7895
16.7117
14.6205
12.5302
10.4553
8.41715
45.6121
45.3865
45.0587
44.6743
44.2274
43.707
43.1096
42.4351
41.6826
40.8502
39.9358
38.9373
37.8532
36.6824
35.4244
34.0801
32.6508
31.1395
29.5501
27.888
26.1599
24.3736
22.5382
20.664
18.7618
16.8434
14.921
13.0068
11.113
9.25675
44.8504
44.6249
44.2931
43.9003
43.4423
42.9094
42.299
41.6118
40.8481
40.007
39.0875
38.0887
37.0102
35.852
34.6151
33.3009
31.912
30.452
28.9255
27.3383
25.6971
24.0097
22.2847
20.5316
18.7603
16.9813
15.205
13.4422
11.703
10.0015
44.1363
43.9113
43.5765
43.1771
42.7103
42.1676
41.5475
40.8512
40.0801
39.2342
38.3134
37.318
36.2485
35.1059
33.892
32.6091
31.2604
29.8501
28.3832
26.8657
25.3041
23.706
22.0797
20.4337
18.777
17.119
15.4688
13.8356
12.2281
10.6579
43.4764
43.2523
42.9153
42.5107
42.037
41.487
40.8597
40.1574
39.3819
38.5343
37.6153
36.626
35.5678
34.4425
33.2524
32.0006
30.6908
29.3275
27.9159
26.462
24.9723
23.454
21.9147
20.3625
18.8054
17.2517
15.7095
14.1867
12.6909
11.2314
42.8776
42.6545
42.316
41.9072
41.4282
40.8727
40.2405
39.5344
38.757
37.9101
36.9951
36.0137
34.9681
33.8606
32.6942
31.4723
30.199
28.8791
27.5178
26.121
24.6951
23.2469
21.7835
20.3123
18.8407
17.376
15.9255
14.496
13.0941
11.7276
42.3471
42.125
41.785
41.3726
40.8893
40.3298
39.6943
38.9862
38.2085
37.3638
36.454
35.4814
34.4487
33.3587
32.2147
31.0206
29.7807
28.4997
27.183
25.8364
24.466
23.0782
21.6799
20.2776
18.8783
17.4885
16.1147
14.763
13.4391
12.1495
41.8927
41.6711
41.329
40.913
40.4262
39.864
39.2267
38.5179
37.7413
36.8997
35.9957
35.0321
34.0118
32.9381
31.8146
30.6453
29.4347
28.1876
26.9094
25.6056
24.2822
22.9454
21.6014
20.2565
18.917
17.5889
16.2781
14.99
13.7298
12.503
41.5228
41.3003
40.954
40.5333
40.043
39.4784
38.8396
38.1307
37.3555
36.5174
35.6192
34.664
33.655
32.5957
31.4899
30.3419
29.1561
27.9374
26.691
25.4224
24.1374
22.8419
21.5417
20.2428
18.9511
17.6721
16.4111
15.1733
13.9631
12.7854
41.2477
41.0217
40.669
40.2438
39.7512
39.185
38.5453
37.8363
37.0626
36.2275
35.3342
34.3859
33.3862
32.3386
31.2471
30.116
28.9498
27.7534
26.5319
25.2908
24.0354
22.7716
21.505
20.2412
18.9857
17.7438
16.5206
15.3206
14.1482
13.0077
41.0796
40.8327
40.4648
40.0357
39.5425
38.9758
38.3358
37.6275
36.8556
36.0234
35.1344
34.1917
33.199
32.1602
31.0791
29.9601
28.8077
27.6269
26.4226
25.2001
23.965
22.7227
21.4787
20.2384
19.0073
17.7902
16.592
15.4172
14.2697
13.1534
41.0827
40.7685
40.373
39.9388
39.4441
38.8752
38.2335
37.5247
36.7532
35.9225
35.0359
34.0967
33.1085
32.0751
31.0006
29.8892
28.7454
27.5739
26.3799
25.1683
23.9447
22.7144
21.4829
20.2554
19.0371
17.833
16.6478
15.4857
14.3507
13.2464
-173.711
-153.656
-123.854
-60.2119
-65.7414
-71.0134
-38.8606
-51.6456
-62.0408
-37.4452
-49.5659
-58.6379
-32.0237
-41.8001
-49.7587
-26.1844
-34.346
-41.3224
-21.5089
-28.4061
-34.3211
-17.4712
-23.2555
-28.1883
-13.8241
-18.6807
-22.8011
-10.5567
-14.6594
-18.125
-7.64604
-11.1335
-14.0709
-5.05294
-8.03628
-10.5461
-2.74257
-5.31158
-7.47316
-0.684604
-2.91162
-4.78763
1.14797
-0.79554
-2.43585
2.77886
1.07128
-0.373396
4.22879
2.71819
1.43665
5.51585
4.17017
3.0252
6.65585
5.44855
4.41826
7.66263
6.57159
5.63778
8.54817
7.55483
6.70225
9.32303
8.41169
7.62743
9.99583
9.15308
8.42613
10.5748
9.78912
9.10987
11.0647
10.3259
9.68607
11.4736
10.7727
10.1645
11.7988
11.1276
10.5448
12.0541
11.4049
10.8402
12.2209
11.5869
11.0354
12.3288
11.7052
11.1599
-98.2341
-105.151
-110.678
-118.158
-128.464
-140.818
-154.373
-168.03
-180.143
-188.671
-191.727
-188.554
-179.32
-165.065
-147.214
-127.438
-107.352
-88.2504
-70.9913
-56.012
-43.417
-33.0859
-24.7734
-18.1847
-13.0241
-9.02148
-5.94162
-3.58577
-1.78561
-0.392114
-83.4206
-96.3363
-104.613
-113.543
-124.335
-136.534
-149.5
-162.274
-173.415
-181.196
-183.944
-180.737
-171.85
-158.267
-141.335
-122.63
-103.659
-85.6157
-69.2844
-55.0629
-43.0455
-33.1237
-25.0762
-18.6367
-13.5373
-9.53147
-6.40283
-3.96643
-2.06194
-0.566732
-77.1395
-91.2467
-100.38
-109.606
-120.333
-132.075
-144.148
-155.711
-165.567
-172.242
-174.258
-170.666
-161.96
-149.104
-133.328
-116.032
-98.5399
-81.8909
-66.7695
-53.527
-42.253
-32.8609
-25.1645
-18.9357
-13.9416
-9.96462
-6.81088
-4.31193
-2.3178
-0.731197
-70.7289
-84.2138
-94.9954
-105.125
-115.69
-126.679
-137.645
-147.831
-156.171
-161.297
-162.076
-157.988
-149.597
-137.736
-123.454
-107.921
-92.2326
-77.2545
-63.5654
-51.4739
-41.0732
-32.308
-25.0356
-19.0724
-14.2254
-10.3095
-7.15584
-4.61444
-2.54767
-0.881811
-60.5963
-73.3956
-85.4672
-96.8044
-107.664
-118.174
-128.119
-136.905
-143.609
-147.094
-146.758
-142.613
-135.032
-124.621
-112.213
-98.7459
-85.0954
-71.9655
-59.8436
-49.0073
-39.5623
-31.4906
-24.6968
-19.0445
-14.382
-10.5582
-7.43034
-4.86799
-2.74729
-1.01592
-50.5731
-61.8895
-73.7949
-85.3053
-96.0098
-105.914
-114.857
-122.354
-127.66
-130.067
-129.377
-125.753
-119.404
-110.744
-100.409
-89.1238
-77.5747
-66.3298
-55.8023
-46.2483
-37.7892
-30.4443
-24.1636
-18.8559
-14.4096
-10.7063
-7.62948
-5.06823
-2.91336
-1.13154
-41.8745
-51.3469
-62.0652
-72.7428
-82.6282
-91.5898
-99.4726
-105.892
-110.303
-112.286
-111.81
-109.012
-104.027
-97.1462
-88.8346
-79.6365
-70.0821
-60.6282
-51.6261
-43.3134
-35.8242
-29.209
-23.4567
-18.5159
-14.3106
-10.753
-7.75089
-5.21258
-3.04375
-1.22748
-34.3372
-42.1259
-51.321
-60.6952
-69.4118
-77.2652
-84.1137
-89.6685
-93.5517
-95.4845
-95.4443
-93.5193
-89.8158
-84.5425
-78.0319
-70.6851
-62.908
-55.0662
-47.4572
-40.2985
-33.7301
-27.8242
-22.5998
-18.0374
-14.0914
-10.7006
-7.79472
-5.30023
-3.13741
-1.30319
-27.8685
-34.2884
-42.016
-50.0163
-57.5082
-64.2687
-70.1777
-75.0239
-78.548
-80.5386
-80.9437
-79.7952
-77.1805
-73.254
-68.252
-62.4671
-56.2083
-49.7663
-43.3903
-37.2753
-31.5593
-26.3268
-21.6177
-17.4364
-13.7616
-10.5541
-7.76337
-5.33204
-3.19442
-1.35879
-22.3602
-27.7065
-34.1742
-40.9311
-47.3044
-53.0861
-58.1786
-62.4275
-65.6484
-67.6742
-68.4383
-67.9132
-66.1687
-63.3212
-59.5389
-55.0341
-50.0407
-44.7882
-39.4826
-34.2947
-29.3543
-24.7504
-20.5354
-16.7304
-13.3327
-10.321
-7.66115
-5.31032
-3.2158
-1.39488
-17.6553
-22.1628
-27.6021
-33.3114
-38.731
-43.6804
-48.0822
-51.8216
-54.7612
-56.7845
-57.7827
-57.7239
-56.6506
-54.6468
-51.8322
-48.3608
-44.4085
-40.1546
-35.7675
-31.3933
-27.15
-23.1252
-19.3772
-15.9381
-12.8182
-10.0104
-7.49395
-5.2386
-3.20341
-1.4125
-13.6131
-17.459
-22.0727
-26.9252
-31.556
-35.814
-39.6387
-42.9428
-45.6204
-47.5773
-48.7242
-49.0038
-48.4381
-47.0865
-45.0337
-42.391
-39.2895
-35.8685
-32.2636
-28.5978
-24.9753
-21.4783
-18.1665
-15.0781
-12.2324
-9.63252
-7.26882
-5.12141
-3.15979
-1.41302
-10.1229
-13.4397
-17.3905
-21.5476
-25.5323
-29.22
-32.5639
-35.4967
-37.9348
-39.8022
-41.0233
-41.5379
-41.3501
-40.4985
-39.0424
-37.0613
-34.6525
-31.9229
-28.9807
-25.9276
-22.8536
-19.8335
-16.925
-14.1688
-11.5897
-9.1985
-6.99366
-4.964
-3.08805
-1.39809
-7.09682
-9.98509
-13.3998
-16.9917
-20.4474
-23.6648
-26.6077
-29.2239
-31.4464
-33.213
-34.4598
-35.1329
-35.2233
-34.7534
-33.7635
-32.3097
-30.4633
-28.3058
-25.9225
-23.3965
-20.8041
-18.2114
-15.6724
-13.2276
-10.9049
-8.71965
-6.67686
-4.77216
-2.99169
-1.36956
-4.46452
-7.00178
-9.97957
-13.1097
-16.131
-18.9594
-21.5673
-23.9138
-25.9444
-27.6075
-28.8501
-29.6262
-29.919
-29.739
-29.1123
-28.0779
-26.6873
-25.002
-23.0884
-21.0138
-18.8417
-16.6297
-14.4265
-12.2709
-10.1917
-8.20728
-6.32705
-4.55198
-2.8745
-1.3294
-2.16924
-4.41639
-7.03538
-9.78606
-12.449
-14.9546
-17.2816
-19.3979
-21.259
-22.8216
-24.0422
-24.8821
-25.3203
-25.3594
-25.015
-24.3133
-23.2914
-21.9948
-20.4748
-18.7851
-16.9782
-15.103
-13.2027
-11.3135
-9.46332
-7.67237
-5.9528
-4.30964
-2.74041
-1.27963
-0.164717
-2.17029
-4.49265
-6.92975
-9.29566
-11.5321
-13.623
-15.5428
-17.2549
-18.7228
-19.9105
-20.7872
-21.3284
-21.5319
-21.4063
-20.9685
-20.2441
-19.2669
-18.0759
-16.7133
-15.2221
-13.6433
-12.0146
-10.3686
-8.73202
-7.12533
-5.56246
-4.05133
-2.59342
-1.22231
1.58711
-0.216051
-2.29178
-4.46841
-6.58692
-8.59819
-10.49
-12.2418
-13.8234
-15.204
-16.3561
-17.2484
-17.8606
-18.1868
-18.2303
-18.0011
-17.5167
-16.8013
-15.8844
-14.7989
-13.5794
-12.2601
-10.8733
-9.44796
-8.00885
-6.57592
-5.16402
-3.78301
-2.43744
-1.15944
3.11779
1.48502
-0.384683
-2.34403
-4.25573
-6.07798
-7.80141
-9.40965
-10.8775
-12.1787
-13.2899
-14.1862
-14.8468
-15.2643
-15.4382
-15.3739
-15.0826
-14.5814
-13.8923
-13.0408
-12.0544
-10.9612
-9.78857
-8.56192
-7.30376
-6.03309
-4.76494
-3.51042
-2.2763
-1.09295
4.4536
2.96477
1.26774
-0.509768
-2.24809
-3.91125
-5.49215
-6.97758
-8.34639
-9.57621
-10.6469
-11.5378
-12.23
-12.7145
-12.9885
-13.0541
-12.9179
-12.5917
-12.0916
-11.4369
-10.6495
-9.7523
-8.76821
-7.71925
-6.6256
-5.50498
-4.37217
-3.23893
-2.11363
-1.02466
5.61647
4.2494
2.6974
1.07233
-0.520386
-2.0495
-3.50963
-4.89006
-6.17289
-7.33891
-8.37069
-9.25054
-9.96204
-10.4953
-10.8459
-11.0135
-11.0017
-10.818
-10.474
-9.98443
-9.36624
-8.63798
-7.81879
-6.92755
-5.98218
-4.99893
-3.99206
-2.97355
-1.95284
-0.956291
6.62482
5.36072
3.93052
2.43326
0.962807
-0.453396
-1.81128
-3.10212
-4.31062
-5.42013
-6.41537
-7.28119
-8.00322
-8.57136
-8.98022
-9.22778
-9.31526
-9.24733
-9.03201
-8.6802
-8.20512
-7.62166
-6.94569
-6.19333
-5.38032
-4.52151
-3.6304
-2.7189
-1.79712
-0.88941
7.49365
6.3164
4.98825
3.59791
2.22986
0.908512
-0.363105
-1.57781
-2.72241
-3.78232
-4.74406
-5.59451
-6.32104
-6.91372
-7.36655
-7.67644
-7.84297
-7.86861
-7.75871
-7.52126
-7.16643
-6.70615
-6.1535
-5.52222
-4.82612
-4.07864
-3.29245
-2.47922
-1.64943
-0.825473
8.23601
7.13152
5.8884
4.587
3.30423
2.06208
0.862786
-0.287701
-1.37787
-2.39481
-3.32648
-4.16141
-4.88849
-5.49806
-5.98387
-6.3421
-6.57121
-6.67206
-6.64801
-6.50478
-6.25016
-5.89366
-5.44609
-4.91914
-4.32494
-3.67562
-2.98301
-2.25844
-1.51252
-0.765819
8.86095
7.81677
6.64375
5.41557
4.20309
3.02636
1.88702
0.790057
-0.254349
-1.23465
-2.13995
-2.96007
-3.68524
-4.30605
-4.81624
-5.21159
-5.48974
-5.65041
-5.69549
-5.62897
-5.45678
-5.18651
-4.82714
-4.38865
-3.88171
-3.3173
-2.70647
-2.06012
-1.38888
-0.711627
9.3786
8.38337
7.2671
6.09809
4.94243
3.81871
2.72808
1.67478
0.667948
-0.28194
-1.16497
-1.97203
-2.6937
-3.32177
-3.84989
-4.2735
-4.58971
-4.79741
-4.8974
-4.8924
-4.78689
-4.58699
-4.3002
-3.93512
-3.50121
-3.00845
-2.46718
-1.88788
-1.2811
-0.664187
9.79045
8.8339
7.76216
6.63959
5.52862
4.44665
3.39451
2.37585
1.39902
0.473685
-0.390982
-1.18647
-1.90434
-2.53678
-3.07754
-3.52192
-3.86669
-4.11018
-4.25244
-4.29521
-4.24195
-4.09761
-3.86856
-3.56233
-3.18737
-2.75286
-2.2685
-1.74437
-1.19089
-0.624124
10.1081
9.17992
8.14113
7.05283
5.97479
4.92363
3.89991
2.90689
1.95234
1.04531
0.194449
-0.592208
-1.30692
-1.94235
-2.49231
-2.95198
-3.31786
-3.5879
-3.76162
-3.84011
-3.82605
-3.72359
-3.53824
-3.27673
-2.94677
-2.55687
-2.11622
-1.63452
-1.12202
-0.593475
10.3199
9.41047
8.39369
7.32873
6.27312
5.24287
4.23845
3.26292
2.32367
1.42939
0.588447
-0.1912
-0.902328
-1.53839
-2.0934
-2.56243
-2.94182
-3.22927
-3.42392
-3.52642
-3.53891
-3.46499
-3.30959
-3.07886
-2.77995
-2.42093
-2.01054
-1.55814
-1.0737
-0.570838
10.4478
9.54293
8.53622
7.48289
6.43811
5.41765
4.42219
3.45473
2.5224
1.63361
0.796334
0.017918
-0.694146
-1.33263
-1.89171
-2.3667
-2.75399
-3.05118
-3.25726
-3.37265
-3.39923
-3.34031
-3.20049
-2.9856
-2.70254
-2.35907
-1.96368
-1.52541
-1.05364
-0.559267
)
;

boundaryField
{
    inlet
    {
        type            zeroGradient;
    }
    outlet
    {
        type            fixedValue;
        value           uniform 0;
    }
    flap
    {
        type            zeroGradient;
    }
    upperWall
    {
        type            zeroGradient;
    }
    lowerWall
    {
        type            zeroGradient;
    }
    frontAndBack
    {
        type            empty;
    }
}


// ************************************************************************* //
