# vtk DataFile Version 2.0

ASCII

DATASET UNSTRUCTURED_GRID

POINTS 68 float 

-5.0000000000000003e-02  2.9999999999999999e-01  0.0000000000000000e+00
-5.0000000000000003e-02  2.9999999999999999e-01  6.6666666669999999e-02
-5.0000000000000003e-02  0.0000000000000000e+00  6.6666666669999999e-02
-5.0000000000000003e-02  0.0000000000000000e+00  0.0000000000000000e+00
-5.0000000000000003e-02  2.9999999999999999e-01  1.3333333330000000e-01
-5.0000000000000003e-02  0.0000000000000000e+00  1.3333333330000000e-01
-5.0000000000000003e-02  2.9999999999999999e-01  2.0000000000000001e-01
-5.0000000000000003e-02  0.0000000000000000e+00  2.0000000000000001e-01
-5.0000000000000003e-02  2.9999999999999999e-01  2.6666666670000000e-01
-5.0000000000000003e-02  0.0000000000000000e+00  2.6666666670000000e-01
-5.0000000000000003e-02  2.9999999999999999e-01  3.3333333329999998e-01
-5.0000000000000003e-02  0.0000000000000000e+00  3.3333333329999998e-01
-5.0000000000000003e-02  2.9999999999999999e-01  4.0000000000000002e-01
-5.0000000000000003e-02  0.0000000000000000e+00  4.0000000000000002e-01
-5.0000000000000003e-02  2.9999999999999999e-01  4.6666666670000001e-01
-5.0000000000000003e-02  0.0000000000000000e+00  4.6666666670000001e-01
-5.0000000000000003e-02  2.9999999999999999e-01  5.3333333329999999e-01
-5.0000000000000003e-02  0.0000000000000000e+00  5.3333333329999999e-01
-5.0000000000000003e-02  2.9999999999999999e-01  5.9999999999999998e-01
-5.0000000000000003e-02  0.0000000000000000e+00  5.9999999999999998e-01
-5.0000000000000003e-02  2.9999999999999999e-01  6.6666666669999997e-01
-5.0000000000000003e-02  0.0000000000000000e+00  6.6666666669999997e-01
-5.0000000000000003e-02  2.9999999999999999e-01  7.3333333329999995e-01
-5.0000000000000003e-02  0.0000000000000000e+00  7.3333333329999995e-01
-5.0000000000000003e-02  2.9999999999999999e-01  8.0000000000000004e-01
-5.0000000000000003e-02  0.0000000000000000e+00  8.0000000000000004e-01
-5.0000000000000003e-02  2.9999999999999999e-01  8.6666666670000003e-01
-5.0000000000000003e-02  0.0000000000000000e+00  8.6666666670000003e-01
-5.0000000000000003e-02  2.9999999999999999e-01  9.3333333330000001e-01
-5.0000000000000003e-02  0.0000000000000000e+00  9.3333333330000001e-01
-5.0000000000000003e-02  2.9999999999999999e-01  1.0000000000000000e+00
-5.0000000000000003e-02  0.0000000000000000e+00  1.0000000000000000e+00
-1.6666666670000000e-02  2.9999999999999999e-01  1.0000000000000000e+00
-1.6666666670000000e-02  0.0000000000000000e+00  1.0000000000000000e+00
1.6666666670000000e-02  2.9999999999999999e-01  1.0000000000000000e+00
1.6666666670000000e-02  0.0000000000000000e+00  1.0000000000000000e+00
5.0000000000000003e-02  2.9999999999999999e-01  1.0000000000000000e+00
5.0000000000000003e-02  0.0000000000000000e+00  1.0000000000000000e+00
5.0000000000000003e-02  2.9999999999999999e-01  0.0000000000000000e+00
5.0000000000000003e-02  0.0000000000000000e+00  0.0000000000000000e+00
5.0000000000000003e-02  0.0000000000000000e+00  6.6666666669999999e-02
5.0000000000000003e-02  2.9999999999999999e-01  6.6666666669999999e-02
5.0000000000000003e-02  0.0000000000000000e+00  1.3333333330000000e-01
5.0000000000000003e-02  2.9999999999999999e-01  1.3333333330000000e-01
5.0000000000000003e-02  0.0000000000000000e+00  2.0000000000000001e-01
5.0000000000000003e-02  2.9999999999999999e-01  2.0000000000000001e-01
5.0000000000000003e-02  0.0000000000000000e+00  2.6666666670000000e-01
5.0000000000000003e-02  2.9999999999999999e-01  2.6666666670000000e-01
5.0000000000000003e-02  0.0000000000000000e+00  3.3333333329999998e-01
5.0000000000000003e-02  2.9999999999999999e-01  3.3333333329999998e-01
5.0000000000000003e-02  0.0000000000000000e+00  4.0000000000000002e-01
5.0000000000000003e-02  2.9999999999999999e-01  4.0000000000000002e-01
5.0000000000000003e-02  0.0000000000000000e+00  4.6666666670000001e-01
5.0000000000000003e-02  2.9999999999999999e-01  4.6666666670000001e-01
5.0000000000000003e-02  0.0000000000000000e+00  5.3333333329999999e-01
5.0000000000000003e-02  2.9999999999999999e-01  5.3333333329999999e-01
5.0000000000000003e-02  0.0000000000000000e+00  5.9999999999999998e-01
5.0000000000000003e-02  2.9999999999999999e-01  5.9999999999999998e-01
5.0000000000000003e-02  0.0000000000000000e+00  6.6666666669999997e-01
5.0000000000000003e-02  2.9999999999999999e-01  6.6666666669999997e-01
5.0000000000000003e-02  0.0000000000000000e+00  7.3333333329999995e-01
5.0000000000000003e-02  2.9999999999999999e-01  7.3333333329999995e-01
5.0000000000000003e-02  0.0000000000000000e+00  8.0000000000000004e-01
5.0000000000000003e-02  2.9999999999999999e-01  8.0000000000000004e-01
5.0000000000000003e-02  0.0000000000000000e+00  8.6666666670000003e-01
5.0000000000000003e-02  2.9999999999999999e-01  8.6666666670000003e-01
5.0000000000000003e-02  0.0000000000000000e+00  9.3333333330000001e-01
5.0000000000000003e-02  2.9999999999999999e-01  9.3333333330000001e-01

CELLS 0 0


CELL_TYPES 0


POINT_DATA 68

VECTORS VertexNormals float

0.0000000000000000e+00 0.0000000000000000e+00 0.0000000000000000e+00 
0.0000000000000000e+00 0.0000000000000000e+00 0.0000000000000000e+00 
0.0000000000000000e+00 0.0000000000000000e+00 0.0000000000000000e+00 
0.0000000000000000e+00 0.0000000000000000e+00 0.0000000000000000e+00 
0.0000000000000000e+00 0.0000000000000000e+00 0.0000000000000000e+00 
0.0000000000000000e+00 0.0000000000000000e+00 0.0000000000000000e+00 
0.0000000000000000e+00 0.0000000000000000e+00 0.0000000000000000e+00 
0.0000000000000000e+00 0.0000000000000000e+00 0.0000000000000000e+00 
0.0000000000000000e+00 0.0000000000000000e+00 0.0000000000000000e+00 
0.0000000000000000e+00 0.0000000000000000e+00 0.0000000000000000e+00 
0.0000000000000000e+00 0.0000000000000000e+00 0.0000000000000000e+00 
0.0000000000000000e+00 0.0000000000000000e+00 0.0000000000000000e+00 
0.0000000000000000e+00 0.0000000000000000e+00 0.0000000000000000e+00 
0.0000000000000000e+00 0.0000000000000000e+00 0.0000000000000000e+00 
0.0000000000000000e+00 0.0000000000000000e+00 0.0000000000000000e+00 
0.0000000000000000e+00 0.0000000000000000e+00 0.0000000000000000e+00 
0.0000000000000000e+00 0.0000000000000000e+00 0.0000000000000000e+00 
0.0000000000000000e+00 0.0000000000000000e+00 0.0000000000000000e+00 
0.0000000000000000e+00 0.0000000000000000e+00 0.0000000000000000e+00 
0.0000000000000000e+00 0.0000000000000000e+00 0.0000000000000000e+00 
0.0000000000000000e+00 0.0000000000000000e+00 0.0000000000000000e+00 
0.0000000000000000e+00 0.0000000000000000e+00 0.0000000000000000e+00 
0.0000000000000000e+00 0.0000000000000000e+00 0.0000000000000000e+00 
0.0000000000000000e+00 0.0000000000000000e+00 0.0000000000000000e+00 
0.0000000000000000e+00 0.0000000000000000e+00 0.0000000000000000e+00 
0.0000000000000000e+00 0.0000000000000000e+00 0.0000000000000000e+00 
0.0000000000000000e+00 0.0000000000000000e+00 0.0000000000000000e+00 
0.0000000000000000e+00 0.0000000000000000e+00 0.0000000000000000e+00 
0.0000000000000000e+00 0.0000000000000000e+00 0.0000000000000000e+00 
0.0000000000000000e+00 0.0000000000000000e+00 0.0000000000000000e+00 
0.0000000000000000e+00 0.0000000000000000e+00 0.0000000000000000e+00 
0.0000000000000000e+00 0.0000000000000000e+00 0.0000000000000000e+00 
0.0000000000000000e+00 0.0000000000000000e+00 0.0000000000000000e+00 
0.0000000000000000e+00 0.0000000000000000e+00 0.0000000000000000e+00 
0.0000000000000000e+00 0.0000000000000000e+00 0.0000000000000000e+00 
0.0000000000000000e+00 0.0000000000000000e+00 0.0000000000000000e+00 
0.0000000000000000e+00 0.0000000000000000e+00 0.0000000000000000e+00 
0.0000000000000000e+00 0.0000000000000000e+00 0.0000000000000000e+00 
0.0000000000000000e+00 0.0000000000000000e+00 0.0000000000000000e+00 
0.0000000000000000e+00 0.0000000000000000e+00 0.0000000000000000e+00 
0.0000000000000000e+00 0.0000000000000000e+00 0.0000000000000000e+00 
0.0000000000000000e+00 0.0000000000000000e+00 0.0000000000000000e+00 
0.0000000000000000e+00 0.0000000000000000e+00 0.0000000000000000e+00 
0.0000000000000000e+00 0.0000000000000000e+00 0.0000000000000000e+00 
0.0000000000000000e+00 0.0000000000000000e+00 0.0000000000000000e+00 
0.0000000000000000e+00 0.0000000000000000e+00 0.0000000000000000e+00 
0.0000000000000000e+00 0.0000000000000000e+00 0.0000000000000000e+00 
0.0000000000000000e+00 0.0000000000000000e+00 0.0000000000000000e+00 
0.0000000000000000e+00 0.0000000000000000e+00 0.0000000000000000e+00 
0.0000000000000000e+00 0.0000000000000000e+00 0.0000000000000000e+00 
0.0000000000000000e+00 0.0000000000000000e+00 0.0000000000000000e+00 
0.0000000000000000e+00 0.0000000000000000e+00 0.0000000000000000e+00 
0.0000000000000000e+00 0.0000000000000000e+00 0.0000000000000000e+00 
0.0000000000000000e+00 0.0000000000000000e+00 0.0000000000000000e+00 
0.0000000000000000e+00 0.0000000000000000e+00 0.0000000000000000e+00 
0.0000000000000000e+00 0.0000000000000000e+00 0.0000000000000000e+00 
0.0000000000000000e+00 0.0000000000000000e+00 0.0000000000000000e+00 
0.0000000000000000e+00 0.0000000000000000e+00 0.0000000000000000e+00 
0.0000000000000000e+00 0.0000000000000000e+00 0.0000000000000000e+00 
0.0000000000000000e+00 0.0000000000000000e+00 0.0000000000000000e+00 
0.0000000000000000e+00 0.0000000000000000e+00 0.0000000000000000e+00 
0.0000000000000000e+00 0.0000000000000000e+00 0.0000000000000000e+00 
0.0000000000000000e+00 0.0000000000000000e+00 0.0000000000000000e+00 
0.0000000000000000e+00 0.0000000000000000e+00 0.0000000000000000e+00 
0.0000000000000000e+00 0.0000000000000000e+00 0.0000000000000000e+00 
0.0000000000000000e+00 0.0000000000000000e+00 0.0000000000000000e+00 
0.0000000000000000e+00 0.0000000000000000e+00 0.0000000000000000e+00 
0.0000000000000000e+00 0.0000000000000000e+00 0.0000000000000000e+00 

VECTORS Displacements0 float
0.0000000000000000e+00 0.0000000000000000e+00 0.0000000000000000e+00 
2.8597317729583292e-03 0.0000000000000000e+00 2.6854221501332477e-03 
2.8597317654324413e-03 0.0000000000000000e+00 2.6854221303460497e-03 
0.0000000000000000e+00 0.0000000000000000e+00 0.0000000000000000e+00 
8.6101771210874145e-03 0.0000000000000000e+00 4.5367353684923721e-03 
8.6101770496508877e-03 0.0000000000000000e+00 4.5367353618166800e-03 
1.6634139708216818e-02 0.0000000000000000e+00 5.4801505855994062e-03 
1.6634139620083820e-02 0.0000000000000000e+00 5.4801506136407342e-03 
2.5865061194900927e-02 0.0000000000000000e+00 5.6312924205988383e-03 
2.5865061160290019e-02 0.0000000000000000e+00 5.6312924466776874e-03 
3.5537207424680077e-02 0.0000000000000000e+00 5.2470354503605064e-03 
3.5537207426683079e-02 0.0000000000000000e+00 5.2470354416837058e-03 
4.5148054080747096e-02 0.0000000000000000e+00 4.5142651115632430e-03 
4.5148054056226995e-02 0.0000000000000000e+00 4.5142650794010829e-03 
5.4273048979608170e-02 0.0000000000000000e+00 3.5913242246230696e-03 
5.4273048926672743e-02 0.0000000000000000e+00 3.5913242017947861e-03 
6.2680011031060884e-02 0.0000000000000000e+00 2.7228361504016275e-03 
6.2680011004336206e-02 0.0000000000000000e+00 2.7228361450319133e-03 
7.0568262642073581e-02 0.0000000000000000e+00 2.0745527082197059e-03 
7.0568262655039321e-02 0.0000000000000000e+00 2.0745527097913376e-03 
7.8315555620378549e-02 0.0000000000000000e+00 1.5898356239137500e-03 
7.8315555638151915e-02 0.0000000000000000e+00 1.5898356263574741e-03 
8.6005618092392919e-02 0.0000000000000000e+00 1.0861760327457873e-03 
8.6005618088515354e-02 0.0000000000000000e+00 1.0861760330328077e-03 
9.3437472513544784e-02 0.0000000000000000e+00 5.0467003135560781e-04 
9.3437472500500801e-02 0.0000000000000000e+00 5.0467003194055223e-04 
1.0045538374298693e-01 0.0000000000000000e+00 -6.5788710779718720e-05 
1.0045538374507608e-01 0.0000000000000000e+00 -6.5788708922424020e-05 
1.0713443652040169e-01 0.0000000000000000e+00 -5.1690097875674128e-04 
1.0713443650408154e-01 0.0000000000000000e+00 -5.1690098009298576e-04 
1.1374459787939323e-01 0.0000000000000000e+00 -8.7047604851478184e-04 
1.1374459778502563e-01 0.0000000000000000e+00 -8.7047605059901306e-04 
1.1359132279542807e-01 0.0000000000000000e+00 -4.2306081143345482e-03 
1.1359132272138329e-01 0.0000000000000000e+00 -4.2306081100046992e-03 
1.1343199421936440e-01 0.0000000000000000e+00 -7.4604460229434734e-03 
1.1343199417222664e-01 0.0000000000000000e+00 -7.4604460136059349e-03 
1.1324071113165744e-01 0.0000000000000000e+00 -1.0831735077510844e-02 
1.1324071111056316e-01 0.0000000000000000e+00 -1.0831735070519183e-02 
0.0000000000000000e+00 0.0000000000000000e+00 0.0000000000000000e+00 
0.0000000000000000e+00 0.0000000000000000e+00 0.0000000000000000e+00 
2.6410948088477189e-03 0.0000000000000000e+00 -2.8164643735025486e-03 
2.6410948017596293e-03 0.0000000000000000e+00 -2.8164643323182860e-03 
8.0792309065839708e-03 0.0000000000000000e+00 -5.0889713470988465e-03 
8.0792309031783530e-03 0.0000000000000000e+00 -5.0889713452454809e-03 
1.5809311121124471e-02 0.0000000000000000e+00 -6.8382090440894643e-03 
1.5809311144649035e-02 0.0000000000000000e+00 -6.8382090405387421e-03 
2.4854338352318900e-02 0.0000000000000000e+00 -8.0841262464733769e-03 
2.4854338361538393e-02 0.0000000000000000e+00 -8.0841262409478351e-03 
3.4462754787185516e-02 0.0000000000000000e+00 -8.9216270193662739e-03 
3.4462754780674128e-02 0.0000000000000000e+00 -8.9216270294218431e-03 
4.4109944625373460e-02 0.0000000000000000e+00 -9.4060214117904148e-03 
4.4109944632650035e-02 0.0000000000000000e+00 -9.4060214325186620e-03 
5.3337403470646853e-02 0.0000000000000000e+00 -9.5755507472320509e-03 
5.3337403476084198e-02 0.0000000000000000e+00 -9.5755507520880745e-03 
6.1853578846518188e-02 0.0000000000000000e+00 -9.6120335356901562e-03 
6.1853578807513798e-02 0.0000000000000000e+00 -9.6120335169648501e-03 
6.9808908532183259e-02 0.0000000000000000e+00 -9.7371252115646019e-03 
6.9808908461020641e-02 0.0000000000000000e+00 -9.7371251854325210e-03 
7.7587722657763772e-02 0.0000000000000000e+00 -9.9959589210950432e-03 
7.7587722605546694e-02 0.0000000000000000e+00 -9.9959589038502057e-03 
8.5313374875611955e-02 0.0000000000000000e+00 -1.0236438090305682e-02 
8.5313374871170106e-02 0.0000000000000000e+00 -1.0236438089286202e-02 
9.2802779737750418e-02 0.0000000000000000e+00 -1.0360350146032017e-02 
9.2802779759987852e-02 0.0000000000000000e+00 -1.0360350149200205e-02 
9.9884694060810020e-02 0.0000000000000000e+00 -1.0428095218651533e-02 
9.9884694058672022e-02 0.0000000000000000e+00 -1.0428095211480314e-02 
1.0660866709416883e-01 0.0000000000000000e+00 -1.0569420049521151e-02 
1.0660866707198478e-01 0.0000000000000000e+00 -1.0569420042269496e-02 

