# vtk DataFile Version 2.0

ASCII

DATASET UNSTRUCTURED_GRID

POINTS 68 double 

-5.0000000000000003e-02  2.9999999999999999e-01  0.0000000000000000e+00
-5.0000000000000003e-02  2.9999999999999999e-01  6.6666666669999999e-02
-5.0000000000000003e-02  0.0000000000000000e+00  6.6666666669999999e-02
-5.0000000000000003e-02  0.0000000000000000e+00  0.0000000000000000e+00
-5.0000000000000003e-02  2.9999999999999999e-01  1.3333333330000000e-01
-5.0000000000000003e-02  0.0000000000000000e+00  1.3333333330000000e-01
-5.0000000000000003e-02  2.9999999999999999e-01  2.0000000000000001e-01
-5.0000000000000003e-02  0.0000000000000000e+00  2.0000000000000001e-01
-5.0000000000000003e-02  2.9999999999999999e-01  2.6666666670000000e-01
-5.0000000000000003e-02  0.0000000000000000e+00  2.6666666670000000e-01
-5.0000000000000003e-02  2.9999999999999999e-01  3.3333333329999998e-01
-5.0000000000000003e-02  0.0000000000000000e+00  3.3333333329999998e-01
-5.0000000000000003e-02  2.9999999999999999e-01  4.0000000000000002e-01
-5.0000000000000003e-02  0.0000000000000000e+00  4.0000000000000002e-01
-5.0000000000000003e-02  2.9999999999999999e-01  4.6666666670000001e-01
-5.0000000000000003e-02  0.0000000000000000e+00  4.6666666670000001e-01
-5.0000000000000003e-02  2.9999999999999999e-01  5.3333333329999999e-01
-5.0000000000000003e-02  0.0000000000000000e+00  5.3333333329999999e-01
-5.0000000000000003e-02  2.9999999999999999e-01  5.9999999999999998e-01
-5.0000000000000003e-02  0.0000000000000000e+00  5.9999999999999998e-01
-5.0000000000000003e-02  2.9999999999999999e-01  6.6666666669999997e-01
-5.0000000000000003e-02  0.0000000000000000e+00  6.6666666669999997e-01
-5.0000000000000003e-02  2.9999999999999999e-01  7.3333333329999995e-01
-5.0000000000000003e-02  0.0000000000000000e+00  7.3333333329999995e-01
-5.0000000000000003e-02  2.9999999999999999e-01  8.0000000000000004e-01
-5.0000000000000003e-02  0.0000000000000000e+00  8.0000000000000004e-01
-5.0000000000000003e-02  2.9999999999999999e-01  8.6666666670000003e-01
-5.0000000000000003e-02  0.0000000000000000e+00  8.6666666670000003e-01
-5.0000000000000003e-02  2.9999999999999999e-01  9.3333333330000001e-01
-5.0000000000000003e-02  0.0000000000000000e+00  9.3333333330000001e-01
-5.0000000000000003e-02  2.9999999999999999e-01  1.0000000000000000e+00
-5.0000000000000003e-02  0.0000000000000000e+00  1.0000000000000000e+00
-1.6666666670000000e-02  2.9999999999999999e-01  1.0000000000000000e+00
-1.6666666670000000e-02  0.0000000000000000e+00  1.0000000000000000e+00
1.6666666670000000e-02  2.9999999999999999e-01  1.0000000000000000e+00
1.6666666670000000e-02  0.0000000000000000e+00  1.0000000000000000e+00
5.0000000000000003e-02  2.9999999999999999e-01  1.0000000000000000e+00
5.0000000000000003e-02  0.0000000000000000e+00  1.0000000000000000e+00
5.0000000000000003e-02  2.9999999999999999e-01  0.0000000000000000e+00
5.0000000000000003e-02  0.0000000000000000e+00  0.0000000000000000e+00
5.0000000000000003e-02  0.0000000000000000e+00  6.6666666669999999e-02
5.0000000000000003e-02  2.9999999999999999e-01  6.6666666669999999e-02
5.0000000000000003e-02  0.0000000000000000e+00  1.3333333330000000e-01
5.0000000000000003e-02  2.9999999999999999e-01  1.3333333330000000e-01
5.0000000000000003e-02  0.0000000000000000e+00  2.0000000000000001e-01
5.0000000000000003e-02  2.9999999999999999e-01  2.0000000000000001e-01
5.0000000000000003e-02  0.0000000000000000e+00  2.6666666670000000e-01
5.0000000000000003e-02  2.9999999999999999e-01  2.6666666670000000e-01
5.0000000000000003e-02  0.0000000000000000e+00  3.3333333329999998e-01
5.0000000000000003e-02  2.9999999999999999e-01  3.3333333329999998e-01
5.0000000000000003e-02  0.0000000000000000e+00  4.0000000000000002e-01
5.0000000000000003e-02  2.9999999999999999e-01  4.0000000000000002e-01
5.0000000000000003e-02  0.0000000000000000e+00  4.6666666670000001e-01
5.0000000000000003e-02  2.9999999999999999e-01  4.6666666670000001e-01
5.0000000000000003e-02  0.0000000000000000e+00  5.3333333329999999e-01
5.0000000000000003e-02  2.9999999999999999e-01  5.3333333329999999e-01
5.0000000000000003e-02  0.0000000000000000e+00  5.9999999999999998e-01
5.0000000000000003e-02  2.9999999999999999e-01  5.9999999999999998e-01
5.0000000000000003e-02  0.0000000000000000e+00  6.6666666669999997e-01
5.0000000000000003e-02  2.9999999999999999e-01  6.6666666669999997e-01
5.0000000000000003e-02  0.0000000000000000e+00  7.3333333329999995e-01
5.0000000000000003e-02  2.9999999999999999e-01  7.3333333329999995e-01
5.0000000000000003e-02  0.0000000000000000e+00  8.0000000000000004e-01
5.0000000000000003e-02  2.9999999999999999e-01  8.0000000000000004e-01
5.0000000000000003e-02  0.0000000000000000e+00  8.6666666670000003e-01
5.0000000000000003e-02  2.9999999999999999e-01  8.6666666670000003e-01
5.0000000000000003e-02  0.0000000000000000e+00  9.3333333330000001e-01
5.0000000000000003e-02  2.9999999999999999e-01  9.3333333330000001e-01

CELLS 0 0


CELL_TYPES 0


POINT_DATA 68

VECTORS VertexNormals double

0.0000000000000000e+00 0.0000000000000000e+00 0.0000000000000000e+00 
0.0000000000000000e+00 0.0000000000000000e+00 0.0000000000000000e+00 
0.0000000000000000e+00 0.0000000000000000e+00 0.0000000000000000e+00 
0.0000000000000000e+00 0.0000000000000000e+00 0.0000000000000000e+00 
0.0000000000000000e+00 0.0000000000000000e+00 0.0000000000000000e+00 
0.0000000000000000e+00 0.0000000000000000e+00 0.0000000000000000e+00 
0.0000000000000000e+00 0.0000000000000000e+00 0.0000000000000000e+00 
0.0000000000000000e+00 0.0000000000000000e+00 0.0000000000000000e+00 
0.0000000000000000e+00 0.0000000000000000e+00 0.0000000000000000e+00 
0.0000000000000000e+00 0.0000000000000000e+00 0.0000000000000000e+00 
0.0000000000000000e+00 0.0000000000000000e+00 0.0000000000000000e+00 
0.0000000000000000e+00 0.0000000000000000e+00 0.0000000000000000e+00 
0.0000000000000000e+00 0.0000000000000000e+00 0.0000000000000000e+00 
0.0000000000000000e+00 0.0000000000000000e+00 0.0000000000000000e+00 
0.0000000000000000e+00 0.0000000000000000e+00 0.0000000000000000e+00 
0.0000000000000000e+00 0.0000000000000000e+00 0.0000000000000000e+00 
0.0000000000000000e+00 0.0000000000000000e+00 0.0000000000000000e+00 
0.0000000000000000e+00 0.0000000000000000e+00 0.0000000000000000e+00 
0.0000000000000000e+00 0.0000000000000000e+00 0.0000000000000000e+00 
0.0000000000000000e+00 0.0000000000000000e+00 0.0000000000000000e+00 
0.0000000000000000e+00 0.0000000000000000e+00 0.0000000000000000e+00 
0.0000000000000000e+00 0.0000000000000000e+00 0.0000000000000000e+00 
0.0000000000000000e+00 0.0000000000000000e+00 0.0000000000000000e+00 
0.0000000000000000e+00 0.0000000000000000e+00 0.0000000000000000e+00 
0.0000000000000000e+00 0.0000000000000000e+00 0.0000000000000000e+00 
0.0000000000000000e+00 0.0000000000000000e+00 0.0000000000000000e+00 
0.0000000000000000e+00 0.0000000000000000e+00 0.0000000000000000e+00 
0.0000000000000000e+00 0.0000000000000000e+00 0.0000000000000000e+00 
0.0000000000000000e+00 0.0000000000000000e+00 0.0000000000000000e+00 
0.0000000000000000e+00 0.0000000000000000e+00 0.0000000000000000e+00 
0.0000000000000000e+00 0.0000000000000000e+00 0.0000000000000000e+00 
0.0000000000000000e+00 0.0000000000000000e+00 0.0000000000000000e+00 
0.0000000000000000e+00 0.0000000000000000e+00 0.0000000000000000e+00 
0.0000000000000000e+00 0.0000000000000000e+00 0.0000000000000000e+00 
0.0000000000000000e+00 0.0000000000000000e+00 0.0000000000000000e+00 
0.0000000000000000e+00 0.0000000000000000e+00 0.0000000000000000e+00 
0.0000000000000000e+00 0.0000000000000000e+00 0.0000000000000000e+00 
0.0000000000000000e+00 0.0000000000000000e+00 0.0000000000000000e+00 
0.0000000000000000e+00 0.0000000000000000e+00 0.0000000000000000e+00 
0.0000000000000000e+00 0.0000000000000000e+00 0.0000000000000000e+00 
0.0000000000000000e+00 0.0000000000000000e+00 0.0000000000000000e+00 
0.0000000000000000e+00 0.0000000000000000e+00 0.0000000000000000e+00 
0.0000000000000000e+00 0.0000000000000000e+00 0.0000000000000000e+00 
0.0000000000000000e+00 0.0000000000000000e+00 0.0000000000000000e+00 
0.0000000000000000e+00 0.0000000000000000e+00 0.0000000000000000e+00 
0.0000000000000000e+00 0.0000000000000000e+00 0.0000000000000000e+00 
0.0000000000000000e+00 0.0000000000000000e+00 0.0000000000000000e+00 
0.0000000000000000e+00 0.0000000000000000e+00 0.0000000000000000e+00 
0.0000000000000000e+00 0.0000000000000000e+00 0.0000000000000000e+00 
0.0000000000000000e+00 0.0000000000000000e+00 0.0000000000000000e+00 
0.0000000000000000e+00 0.0000000000000000e+00 0.0000000000000000e+00 
0.0000000000000000e+00 0.0000000000000000e+00 0.0000000000000000e+00 
0.0000000000000000e+00 0.0000000000000000e+00 0.0000000000000000e+00 
0.0000000000000000e+00 0.0000000000000000e+00 0.0000000000000000e+00 
0.0000000000000000e+00 0.0000000000000000e+00 0.0000000000000000e+00 
0.0000000000000000e+00 0.0000000000000000e+00 0.0000000000000000e+00 
0.0000000000000000e+00 0.0000000000000000e+00 0.0000000000000000e+00 
0.0000000000000000e+00 0.0000000000000000e+00 0.0000000000000000e+00 
0.0000000000000000e+00 0.0000000000000000e+00 0.0000000000000000e+00 
0.0000000000000000e+00 0.0000000000000000e+00 0.0000000000000000e+00 
0.0000000000000000e+00 0.0000000000000000e+00 0.0000000000000000e+00 
0.0000000000000000e+00 0.0000000000000000e+00 0.0000000000000000e+00 
0.0000000000000000e+00 0.0000000000000000e+00 0.0000000000000000e+00 
0.0000000000000000e+00 0.0000000000000000e+00 0.0000000000000000e+00 
0.0000000000000000e+00 0.0000000000000000e+00 0.0000000000000000e+00 
0.0000000000000000e+00 0.0000000000000000e+00 0.0000000000000000e+00 
0.0000000000000000e+00 0.0000000000000000e+00 0.0000000000000000e+00 
0.0000000000000000e+00 0.0000000000000000e+00 0.0000000000000000e+00 

VECTORS Displacements0 double
0.0000000000000000e+00 0.0000000000000000e+00 0.0000000000000000e+00 
3.0252833800748996e-03 0.0000000000000000e+00 2.7206371607454943e-03 
3.0252833613001323e-03 0.0000000000000000e+00 2.7206371471663686e-03 
0.0000000000000000e+00 0.0000000000000000e+00 0.0000000000000000e+00 
8.9486041602212102e-03 0.0000000000000000e+00 4.4800686578933173e-03 
8.9486040778007127e-03 0.0000000000000000e+00 4.4800686658384749e-03 
1.6968950991300510e-02 0.0000000000000000e+00 5.2657737823870151e-03 
1.6968950910431640e-02 0.0000000000000000e+00 5.2657738237699720e-03 
2.6004624660653494e-02 0.0000000000000000e+00 5.2403461499861432e-03 
2.6004624640409819e-02 0.0000000000000000e+00 5.2403461817344919e-03 
3.5233174368450942e-02 0.0000000000000000e+00 4.6467970800814782e-03 
3.5233174366886895e-02 0.0000000000000000e+00 4.6467970730971180e-03 
4.3991752022901100e-02 0.0000000000000000e+00 3.7722950454979385e-03 
4.3991751976372978e-02 0.0000000000000000e+00 3.7722950190960647e-03 
5.2051866662708321e-02 0.0000000000000000e+00 2.9347850376131388e-03 
5.2051866592168435e-02 0.0000000000000000e+00 2.9347850200865380e-03 
5.9651154995299563e-02 0.0000000000000000e+00 2.2662479990048293e-03 
5.9651154961440037e-02 0.0000000000000000e+00 2.2662479946785686e-03 
6.7010256468932439e-02 0.0000000000000000e+00 1.6684258594117022e-03 
6.7010256487431571e-02 0.0000000000000000e+00 1.6684258603112240e-03 
7.4035289683930028e-02 0.0000000000000000e+00 1.0357342217226740e-03 
7.4035289709734234e-02 0.0000000000000000e+00 1.0357342205730398e-03 
8.0539079890950827e-02 0.0000000000000000e+00 4.0027673704658411e-04 
8.0539079882793768e-02 0.0000000000000000e+00 4.0027673797631697e-04 
8.6503124417498523e-02 0.0000000000000000e+00 -1.4087525930926367e-04 
8.6503124402805165e-02 0.0000000000000000e+00 -1.4087525063042911e-04 
9.2099351350045808e-02 0.0000000000000000e+00 -5.2593586636771709e-04 
9.2099351359123602e-02 0.0000000000000000e+00 -5.2593585929966782e-04 
9.7539334888490523e-02 0.0000000000000000e+00 -7.8415623989787787e-04 
9.7539334862757981e-02 0.0000000000000000e+00 -7.8415624376051724e-04 
1.0299153012354445e-01 0.0000000000000000e+00 -1.0034530160379466e-03 
1.0299152998637191e-01 0.0000000000000000e+00 -1.0034530250041234e-03 
1.0288761670946867e-01 0.0000000000000000e+00 -3.7794714079328632e-03 
1.0288761660002237e-01 0.0000000000000000e+00 -3.7794714037333319e-03 
1.0278129987260301e-01 0.0000000000000000e+00 -6.4240974148799205e-03 
1.0278129980102979e-01 0.0000000000000000e+00 -6.4240974023100621e-03 
1.0265002801234270e-01 0.0000000000000000e+00 -9.2105581894041146e-03 
1.0265002797837740e-01 0.0000000000000000e+00 -9.2105581798673456e-03 
0.0000000000000000e+00 0.0000000000000000e+00 0.0000000000000000e+00 
0.0000000000000000e+00 0.0000000000000000e+00 0.0000000000000000e+00 
2.8284298134149798e-03 0.0000000000000000e+00 -2.9538566004258990e-03 
2.8284297826914884e-03 0.0000000000000000e+00 -2.9538565669750870e-03 
8.4410312068494888e-03 0.0000000000000000e+00 -5.2394736401771332e-03 
8.4410312015533433e-03 0.0000000000000000e+00 -5.2394736393438952e-03 
1.6196016458434652e-02 0.0000000000000000e+00 -6.9124503097986126e-03 
1.6196016480081434e-02 0.0000000000000000e+00 -6.9124503037873847e-03 
2.5091175651039653e-02 0.0000000000000000e+00 -8.0250461376998594e-03 
2.5091175657482853e-02 0.0000000000000000e+00 -8.0250461319635643e-03 
3.4317334222510452e-02 0.0000000000000000e+00 -8.6317318232693365e-03 
3.4317334224777701e-02 0.0000000000000000e+00 -8.6317318354735256e-03 
4.3161691954944049e-02 0.0000000000000000e+00 -8.8388051662502357e-03 
4.3161691977787686e-02 0.0000000000000000e+00 -8.8388051868487621e-03 
5.1314370474141301e-02 0.0000000000000000e+00 -8.8992190376654332e-03 
5.1314370483777592e-02 0.0000000000000000e+00 -8.8992190422852724e-03 
5.8980004702059233e-02 0.0000000000000000e+00 -9.0091958945274168e-03 
5.8980004649481506e-02 0.0000000000000000e+00 -9.0091958751370438e-03 
6.6389413925837512e-02 0.0000000000000000e+00 -9.1257632298152400e-03 
6.6389413818410348e-02 0.0000000000000000e+00 -9.1257632000130342e-03 
7.3479086004967220e-02 0.0000000000000000e+00 -9.1291867709070960e-03 
7.3479085916956635e-02 0.0000000000000000e+00 -9.1291867548860279e-03 
8.0055444031454467e-02 0.0000000000000000e+00 -9.0212103508928148e-03 
8.0055444020831548e-02 0.0000000000000000e+00 -9.0212103497320333e-03 
8.6084814907223792e-02 0.0000000000000000e+00 -8.9088407665032406e-03 
8.6084814930231221e-02 0.0000000000000000e+00 -8.9088407567186126e-03 
9.1725028327312830e-02 0.0000000000000000e+00 -8.9021641067633887e-03 
9.1725028308906859e-02 0.0000000000000000e+00 -8.9021640832335647e-03 
9.7186355846941894e-02 0.0000000000000000e+00 -9.0190267773468634e-03 
9.7186355811417893e-02 0.0000000000000000e+00 -9.0190267624486314e-03 

