# vtk DataFile Version 2.0

ASCII

DATASET UNSTRUCTURED_GRID

POINTS 33 float 

-5.0000000000000003e-02  1.4999999999999997e-01  3.3333333335000000e-02
-5.0000000000000003e-02  1.4999999999999999e-01  9.9999999985000018e-02
-5.0000000000000003e-02  1.4999999999999997e-01  1.6666666665000002e-01
-5.0000000000000003e-02  1.4999999999999999e-01  2.3333333334999998e-01
-5.0000000000000003e-02  1.4999999999999997e-01  2.9999999999999993e-01
-5.0000000000000003e-02  1.4999999999999997e-01  3.6666666665000003e-01
-5.0000000000000003e-02  1.4999999999999999e-01  4.3333333335000002e-01
-5.0000000000000003e-02  1.4999999999999997e-01  5.0000000000000000e-01
-5.0000000000000003e-02  1.4999999999999999e-01  5.6666666664999987e-01
-5.0000000000000003e-02  1.4999999999999999e-01  6.3333333334999986e-01
-5.0000000000000003e-02  1.4999999999999997e-01  6.9999999999999984e-01
-5.0000000000000003e-02  1.4999999999999999e-01  7.6666666664999994e-01
-4.9999999999999996e-02  1.4999999999999999e-01  8.3333333334999982e-01
-5.0000000000000003e-02  1.4999999999999997e-01  8.9999999999999991e-01
-5.0000000000000003e-02  1.4999999999999999e-01  9.6666666664999990e-01
-3.3333333335000000e-02  1.4999999999999997e-01  9.9999999999999978e-01
0.0000000000000000e+00  1.4999999999999997e-01  1.0000000000000000e+00
3.3333333335000007e-02  1.4999999999999999e-01  1.0000000000000000e+00
5.0000000000000003e-02  1.4999999999999997e-01  3.3333333335000000e-02
5.0000000000000003e-02  1.4999999999999999e-01  9.9999999985000004e-02
5.0000000000000003e-02  1.4999999999999999e-01  1.6666666664999999e-01
5.0000000000000003e-02  1.5000000000000002e-01  2.3333333334999998e-01
5.0000000000000003e-02  1.4999999999999997e-01  2.9999999999999993e-01
5.0000000000000003e-02  1.4999999999999997e-01  3.6666666665000003e-01
5.0000000000000003e-02  1.5000000000000002e-01  4.3333333334999991e-01
5.0000000000000003e-02  1.4999999999999997e-01  5.0000000000000000e-01
5.0000000000000003e-02  1.5000000000000002e-01  5.6666666664999987e-01
5.0000000000000003e-02  1.5000000000000002e-01  6.3333333334999997e-01
5.0000000000000003e-02  1.4999999999999997e-01  6.9999999999999984e-01
5.0000000000000003e-02  1.4999999999999999e-01  7.6666666664999994e-01
5.0000000000000003e-02  1.5000000000000002e-01  8.3333333334999993e-01
5.0000000000000010e-02  1.4999999999999997e-01  8.9999999999999991e-01
5.0000000000000003e-02  1.5000000000000002e-01  9.6666666664999990e-01

CELLS 0 0


CELL_TYPES 0


POINT_DATA 33

VECTORS VertexNormals float

0.0000000000000000e+00 0.0000000000000000e+00 0.0000000000000000e+00 
0.0000000000000000e+00 0.0000000000000000e+00 0.0000000000000000e+00 
0.0000000000000000e+00 0.0000000000000000e+00 0.0000000000000000e+00 
0.0000000000000000e+00 0.0000000000000000e+00 0.0000000000000000e+00 
0.0000000000000000e+00 0.0000000000000000e+00 0.0000000000000000e+00 
0.0000000000000000e+00 0.0000000000000000e+00 0.0000000000000000e+00 
0.0000000000000000e+00 0.0000000000000000e+00 0.0000000000000000e+00 
0.0000000000000000e+00 0.0000000000000000e+00 0.0000000000000000e+00 
0.0000000000000000e+00 0.0000000000000000e+00 0.0000000000000000e+00 
0.0000000000000000e+00 0.0000000000000000e+00 0.0000000000000000e+00 
0.0000000000000000e+00 0.0000000000000000e+00 0.0000000000000000e+00 
0.0000000000000000e+00 0.0000000000000000e+00 0.0000000000000000e+00 
0.0000000000000000e+00 0.0000000000000000e+00 0.0000000000000000e+00 
0.0000000000000000e+00 0.0000000000000000e+00 0.0000000000000000e+00 
0.0000000000000000e+00 0.0000000000000000e+00 0.0000000000000000e+00 
0.0000000000000000e+00 0.0000000000000000e+00 0.0000000000000000e+00 
0.0000000000000000e+00 0.0000000000000000e+00 0.0000000000000000e+00 
0.0000000000000000e+00 0.0000000000000000e+00 0.0000000000000000e+00 
0.0000000000000000e+00 0.0000000000000000e+00 0.0000000000000000e+00 
0.0000000000000000e+00 0.0000000000000000e+00 0.0000000000000000e+00 
0.0000000000000000e+00 0.0000000000000000e+00 0.0000000000000000e+00 
0.0000000000000000e+00 0.0000000000000000e+00 0.0000000000000000e+00 
0.0000000000000000e+00 0.0000000000000000e+00 0.0000000000000000e+00 
0.0000000000000000e+00 0.0000000000000000e+00 0.0000000000000000e+00 
0.0000000000000000e+00 0.0000000000000000e+00 0.0000000000000000e+00 
0.0000000000000000e+00 0.0000000000000000e+00 0.0000000000000000e+00 
0.0000000000000000e+00 0.0000000000000000e+00 0.0000000000000000e+00 
0.0000000000000000e+00 0.0000000000000000e+00 0.0000000000000000e+00 
0.0000000000000000e+00 0.0000000000000000e+00 0.0000000000000000e+00 
0.0000000000000000e+00 0.0000000000000000e+00 0.0000000000000000e+00 
0.0000000000000000e+00 0.0000000000000000e+00 0.0000000000000000e+00 
0.0000000000000000e+00 0.0000000000000000e+00 0.0000000000000000e+00 
0.0000000000000000e+00 0.0000000000000000e+00 0.0000000000000000e+00 

VECTORS Forces0 float
2.5802621535538672e+00 -4.7697740632809243e-22 -8.6843252006919877e-02 
2.5693112250006527e+00 1.6843472901994666e-18 -1.8323053084297541e-01 
2.5516317850266672e+00 1.7113258413836166e-18 -2.7789994897219217e-01 
2.5211042584786418e+00 1.6992458676851110e-18 -3.5244332832543251e-01 
2.4741426984502248e+00 1.6378370315025005e-18 -4.0755241208900361e-01 
2.4095869929197025e+00 1.6724687381067241e-18 -4.4323732787022685e-01 
2.3299103284836145e+00 1.6570031530637326e-18 -4.5713584802111312e-01 
2.2407664869820896e+00 3.0719145704660978e-18 -4.5130507140519222e-01 
2.1398519407632968e+00 1.6445996424859073e-18 -4.3505741179081631e-01 
2.0202063342629648e+00 1.6318782797565245e-18 -4.1307842762568531e-01 
1.8798436396251066e+00 -1.6234438282556510e-18 -3.8256909123477412e-01 
1.7166452862605011e+00 -3.9839206607899631e-18 -3.4167368338890536e-01 
1.5148220415314255e+00 -1.6042620235503785e-18 -2.8957401559453033e-01 
1.2310812728548357e+00 1.5859408233869035e-18 -2.2346248489398784e-01 
7.5024528837104487e-01 -1.0294864967773349e-18 -1.3086207831077054e-01 
1.7487811453314384e-01 1.7361633382404283e-21 9.3398489191595624e-01 
1.3393064766680110e-01 -8.0828539217156508e-19 7.3537775572925623e-01 
1.0103403710103763e-01 -7.8958908506087865e-19 5.5002192776908776e-01 
4.0368279339712004e-01 -1.4111821802329572e-19 -1.2885272677344099e-02 
4.0138184566537466e-01 -1.5095749649202009e-23 -2.8522565689979143e-02 
4.0450871240586694e-01 1.2771309919695453e-18 -4.3584474807102924e-02 
4.1674278900486739e-01 1.5737758662397257e-18 -5.7395674384196078e-02 
4.4026829563260977e-01 1.5899285701487521e-18 -7.1342761596022639e-02 
4.7573627520414702e-01 -6.6013100705558661e-19 -8.6035395500738049e-02 
5.2228454146446912e-01 -1.6199563208250416e-18 -1.0069776209540912e-01 
5.7639552051643028e-01 -2.4292706927714731e-18 -1.1411881481449533e-01 
6.3239609134781882e-01 7.7920908554737562e-24 -1.2649994501168094e-01 
6.8575778506926399e-01 -2.4274379333388244e-23 -1.3818070893541085e-01 
7.3637406289718499e-01 1.6517262754989126e-18 -1.4803296563774351e-01 
7.8530564268564107e-01 -4.7019774032891500e-38 -1.5493710147460615e-01 
8.2462095193786411e-01 -2.8014479366005287e-18 -1.5705105987820958e-01 
8.4307765041232019e-01 1.6850212555389527e-18 -1.5386624576555599e-01 
8.3571456941831967e-01 -1.1455864260425280e-18 -1.5008272443310364e-01 

