# vtk DataFile Version 2.0

ASCII

DATASET UNSTRUCTURED_GRID

POINTS 33 double 

-5.0000000000000003e-02  1.4999999999999997e-01  3.3333333335000000e-02
-5.0000000000000003e-02  1.4999999999999999e-01  9.9999999985000018e-02
-5.0000000000000003e-02  1.4999999999999997e-01  1.6666666665000002e-01
-5.0000000000000003e-02  1.4999999999999999e-01  2.3333333334999998e-01
-5.0000000000000003e-02  1.4999999999999997e-01  2.9999999999999993e-01
-5.0000000000000003e-02  1.4999999999999997e-01  3.6666666665000003e-01
-5.0000000000000003e-02  1.4999999999999999e-01  4.3333333335000002e-01
-5.0000000000000003e-02  1.4999999999999997e-01  5.0000000000000000e-01
-5.0000000000000003e-02  1.4999999999999999e-01  5.6666666664999987e-01
-5.0000000000000003e-02  1.4999999999999999e-01  6.3333333334999986e-01
-5.0000000000000003e-02  1.4999999999999997e-01  6.9999999999999984e-01
-5.0000000000000003e-02  1.4999999999999999e-01  7.6666666664999994e-01
-4.9999999999999996e-02  1.4999999999999999e-01  8.3333333334999982e-01
-5.0000000000000003e-02  1.4999999999999997e-01  8.9999999999999991e-01
-5.0000000000000003e-02  1.4999999999999999e-01  9.6666666664999990e-01
-3.3333333335000000e-02  1.4999999999999997e-01  9.9999999999999978e-01
0.0000000000000000e+00  1.4999999999999997e-01  1.0000000000000000e+00
3.3333333335000007e-02  1.4999999999999999e-01  1.0000000000000000e+00
5.0000000000000003e-02  1.4999999999999997e-01  3.3333333335000000e-02
5.0000000000000003e-02  1.4999999999999999e-01  9.9999999985000004e-02
5.0000000000000003e-02  1.4999999999999999e-01  1.6666666664999999e-01
5.0000000000000003e-02  1.5000000000000002e-01  2.3333333334999998e-01
5.0000000000000003e-02  1.4999999999999997e-01  2.9999999999999993e-01
5.0000000000000003e-02  1.4999999999999997e-01  3.6666666665000003e-01
5.0000000000000003e-02  1.5000000000000002e-01  4.3333333334999991e-01
5.0000000000000003e-02  1.4999999999999997e-01  5.0000000000000000e-01
5.0000000000000003e-02  1.5000000000000002e-01  5.6666666664999987e-01
5.0000000000000003e-02  1.5000000000000002e-01  6.3333333334999997e-01
5.0000000000000003e-02  1.4999999999999997e-01  6.9999999999999984e-01
5.0000000000000003e-02  1.4999999999999999e-01  7.6666666664999994e-01
5.0000000000000003e-02  1.5000000000000002e-01  8.3333333334999993e-01
5.0000000000000010e-02  1.4999999999999997e-01  8.9999999999999991e-01
5.0000000000000003e-02  1.5000000000000002e-01  9.6666666664999990e-01

CELLS 0 0


CELL_TYPES 0


POINT_DATA 33

VECTORS VertexNormals double

0.0000000000000000e+00 0.0000000000000000e+00 0.0000000000000000e+00 
0.0000000000000000e+00 0.0000000000000000e+00 0.0000000000000000e+00 
0.0000000000000000e+00 0.0000000000000000e+00 0.0000000000000000e+00 
0.0000000000000000e+00 0.0000000000000000e+00 0.0000000000000000e+00 
0.0000000000000000e+00 0.0000000000000000e+00 0.0000000000000000e+00 
0.0000000000000000e+00 0.0000000000000000e+00 0.0000000000000000e+00 
0.0000000000000000e+00 0.0000000000000000e+00 0.0000000000000000e+00 
0.0000000000000000e+00 0.0000000000000000e+00 0.0000000000000000e+00 
0.0000000000000000e+00 0.0000000000000000e+00 0.0000000000000000e+00 
0.0000000000000000e+00 0.0000000000000000e+00 0.0000000000000000e+00 
0.0000000000000000e+00 0.0000000000000000e+00 0.0000000000000000e+00 
0.0000000000000000e+00 0.0000000000000000e+00 0.0000000000000000e+00 
0.0000000000000000e+00 0.0000000000000000e+00 0.0000000000000000e+00 
0.0000000000000000e+00 0.0000000000000000e+00 0.0000000000000000e+00 
0.0000000000000000e+00 0.0000000000000000e+00 0.0000000000000000e+00 
0.0000000000000000e+00 0.0000000000000000e+00 0.0000000000000000e+00 
0.0000000000000000e+00 0.0000000000000000e+00 0.0000000000000000e+00 
0.0000000000000000e+00 0.0000000000000000e+00 0.0000000000000000e+00 
0.0000000000000000e+00 0.0000000000000000e+00 0.0000000000000000e+00 
0.0000000000000000e+00 0.0000000000000000e+00 0.0000000000000000e+00 
0.0000000000000000e+00 0.0000000000000000e+00 0.0000000000000000e+00 
0.0000000000000000e+00 0.0000000000000000e+00 0.0000000000000000e+00 
0.0000000000000000e+00 0.0000000000000000e+00 0.0000000000000000e+00 
0.0000000000000000e+00 0.0000000000000000e+00 0.0000000000000000e+00 
0.0000000000000000e+00 0.0000000000000000e+00 0.0000000000000000e+00 
0.0000000000000000e+00 0.0000000000000000e+00 0.0000000000000000e+00 
0.0000000000000000e+00 0.0000000000000000e+00 0.0000000000000000e+00 
0.0000000000000000e+00 0.0000000000000000e+00 0.0000000000000000e+00 
0.0000000000000000e+00 0.0000000000000000e+00 0.0000000000000000e+00 
0.0000000000000000e+00 0.0000000000000000e+00 0.0000000000000000e+00 
0.0000000000000000e+00 0.0000000000000000e+00 0.0000000000000000e+00 
0.0000000000000000e+00 0.0000000000000000e+00 0.0000000000000000e+00 
0.0000000000000000e+00 0.0000000000000000e+00 0.0000000000000000e+00 

VECTORS Forces0 double
3.9396161307233530e+00 -5.2561991897224589e-19 -1.6836829091636088e-01 
3.9168083236326412e+00 1.3006967542760420e-21 -3.9773233836534444e-01 
3.8708930643786839e+00 1.7680125126405521e-18 -6.3986224536018066e-01 
3.7854416850727794e+00 -1.1754943508222875e-38 -8.5788072108552182e-01 
3.6574953390585194e+00 -1.7553772782417865e-18 -1.0479151502062494e+00 
3.4976070160414792e+00 1.7168811949339976e-18 -1.1968317684173990e+00 
3.3244480979198969e+00 1.7278004047765070e-18 -1.2969898703881582e+00 
3.1556093374277436e+00 -2.0762274587284753e-20 -1.3526008893025008e+00 
2.9938956670024486e+00 -1.6901207204309742e-18 -1.3748464583284772e+00 
2.8352242245947137e+00 -8.3975818783764118e-18 -1.3727249240564519e+00 
2.6774473405910775e+00 3.3155563770880973e-18 -1.3504424790209724e+00 
2.5186841574137326e+00 -3.2619214408460789e-18 -1.3062339707692199e+00 
2.3549286397240334e+00 -1.0384174050311525e-17 -1.2353565010879493e+00 
2.1699097130063301e+00 1.0619675461827883e-20 -1.1341588986830511e+00 
1.9059882769916290e+00 -1.4349259858323037e-18 -9.9337182232368515e-01 
-5.2691488583455237e-02 -9.5080431962606953e-19 -1.0247409749578149e-01 
-1.4826555215635964e-01 -8.6292211178477007e-19 -2.8115369305742222e-01 
-2.3484815832901601e-01 -1.6957098452644192e-22 -4.4447211365246858e-01 
-1.6264524742805537e+00 0.0000000000000000e+00 6.6371487760903070e-02 
-1.6289240056333303e+00 1.8084026005609397e-18 1.6623273096514327e-01 
-1.6276699865434727e+00 8.4504111683326231e-21 2.7047783665848663e-01 
-1.6200930410157106e+00 9.9680151602863354e-22 3.6872099072899028e-01 
-1.6068450750725016e+00 -9.4161722145779490e-22 4.6296328239620171e-01 
-1.5895359565711780e+00 1.3455993598284849e-20 5.4745604568867601e-01 
-1.5689800515371455e+00 -1.5462882037416179e-18 6.1602812109994620e-01 
-1.5431313222683456e+00 -1.5561776487587852e-18 6.6605151577949384e-01 
-1.5116993129081717e+00 -1.0469565017455176e-20 6.9948614631724593e-01 
-1.4755344314887981e+00 4.4950250977694042e-18 7.2021397911626905e-01 
-1.4342899918711112e+00 -1.6280724665431825e-18 7.3008853014307284e-01 
-1.3884363687292389e+00 4.2694994056973492e-18 7.2756078977410266e-01 
-1.3389133809370120e+00 5.7825604444454102e-18 7.1056099615460233e-01 
-1.2875832952662623e+00 -3.5260511886371991e-18 6.8224801493405351e-01 
-1.2418391631169368e+00 2.0349881470861311e-18 6.5743978726451280e-01 

