# vtk DataFile Version 2.0

ASCII

DATASET UNSTRUCTURED_GRID

POINTS 33 double 

-5.0000000000000003e-02  1.4999999999999997e-01  3.3333333335000000e-02
-5.0000000000000003e-02  1.4999999999999999e-01  9.9999999985000018e-02
-5.0000000000000003e-02  1.4999999999999997e-01  1.6666666665000002e-01
-5.0000000000000003e-02  1.4999999999999999e-01  2.3333333334999998e-01
-5.0000000000000003e-02  1.4999999999999997e-01  2.9999999999999993e-01
-5.0000000000000003e-02  1.4999999999999997e-01  3.6666666665000003e-01
-5.0000000000000003e-02  1.4999999999999999e-01  4.3333333335000002e-01
-5.0000000000000003e-02  1.4999999999999997e-01  5.0000000000000000e-01
-5.0000000000000003e-02  1.4999999999999999e-01  5.6666666664999987e-01
-5.0000000000000003e-02  1.4999999999999999e-01  6.3333333334999986e-01
-5.0000000000000003e-02  1.4999999999999997e-01  6.9999999999999984e-01
-5.0000000000000003e-02  1.4999999999999999e-01  7.6666666664999994e-01
-4.9999999999999996e-02  1.4999999999999999e-01  8.3333333334999982e-01
-5.0000000000000003e-02  1.4999999999999997e-01  8.9999999999999991e-01
-5.0000000000000003e-02  1.4999999999999999e-01  9.6666666664999990e-01
-3.3333333335000000e-02  1.4999999999999997e-01  9.9999999999999978e-01
0.0000000000000000e+00  1.4999999999999997e-01  1.0000000000000000e+00
3.3333333335000007e-02  1.4999999999999999e-01  1.0000000000000000e+00
5.0000000000000003e-02  1.4999999999999997e-01  3.3333333335000000e-02
5.0000000000000003e-02  1.4999999999999999e-01  9.9999999985000004e-02
5.0000000000000003e-02  1.4999999999999999e-01  1.6666666664999999e-01
5.0000000000000003e-02  1.5000000000000002e-01  2.3333333334999998e-01
5.0000000000000003e-02  1.4999999999999997e-01  2.9999999999999993e-01
5.0000000000000003e-02  1.4999999999999997e-01  3.6666666665000003e-01
5.0000000000000003e-02  1.5000000000000002e-01  4.3333333334999991e-01
5.0000000000000003e-02  1.4999999999999997e-01  5.0000000000000000e-01
5.0000000000000003e-02  1.5000000000000002e-01  5.6666666664999987e-01
5.0000000000000003e-02  1.5000000000000002e-01  6.3333333334999997e-01
5.0000000000000003e-02  1.4999999999999997e-01  6.9999999999999984e-01
5.0000000000000003e-02  1.4999999999999999e-01  7.6666666664999994e-01
5.0000000000000003e-02  1.5000000000000002e-01  8.3333333334999993e-01
5.0000000000000010e-02  1.4999999999999997e-01  8.9999999999999991e-01
5.0000000000000003e-02  1.5000000000000002e-01  9.6666666664999990e-01

CELLS 0 0


CELL_TYPES 0


POINT_DATA 33

VECTORS VertexNormals double

0.0000000000000000e+00 0.0000000000000000e+00 0.0000000000000000e+00 
0.0000000000000000e+00 0.0000000000000000e+00 0.0000000000000000e+00 
0.0000000000000000e+00 0.0000000000000000e+00 0.0000000000000000e+00 
0.0000000000000000e+00 0.0000000000000000e+00 0.0000000000000000e+00 
0.0000000000000000e+00 0.0000000000000000e+00 0.0000000000000000e+00 
0.0000000000000000e+00 0.0000000000000000e+00 0.0000000000000000e+00 
0.0000000000000000e+00 0.0000000000000000e+00 0.0000000000000000e+00 
0.0000000000000000e+00 0.0000000000000000e+00 0.0000000000000000e+00 
0.0000000000000000e+00 0.0000000000000000e+00 0.0000000000000000e+00 
0.0000000000000000e+00 0.0000000000000000e+00 0.0000000000000000e+00 
0.0000000000000000e+00 0.0000000000000000e+00 0.0000000000000000e+00 
0.0000000000000000e+00 0.0000000000000000e+00 0.0000000000000000e+00 
0.0000000000000000e+00 0.0000000000000000e+00 0.0000000000000000e+00 
0.0000000000000000e+00 0.0000000000000000e+00 0.0000000000000000e+00 
0.0000000000000000e+00 0.0000000000000000e+00 0.0000000000000000e+00 
0.0000000000000000e+00 0.0000000000000000e+00 0.0000000000000000e+00 
0.0000000000000000e+00 0.0000000000000000e+00 0.0000000000000000e+00 
0.0000000000000000e+00 0.0000000000000000e+00 0.0000000000000000e+00 
0.0000000000000000e+00 0.0000000000000000e+00 0.0000000000000000e+00 
0.0000000000000000e+00 0.0000000000000000e+00 0.0000000000000000e+00 
0.0000000000000000e+00 0.0000000000000000e+00 0.0000000000000000e+00 
0.0000000000000000e+00 0.0000000000000000e+00 0.0000000000000000e+00 
0.0000000000000000e+00 0.0000000000000000e+00 0.0000000000000000e+00 
0.0000000000000000e+00 0.0000000000000000e+00 0.0000000000000000e+00 
0.0000000000000000e+00 0.0000000000000000e+00 0.0000000000000000e+00 
0.0000000000000000e+00 0.0000000000000000e+00 0.0000000000000000e+00 
0.0000000000000000e+00 0.0000000000000000e+00 0.0000000000000000e+00 
0.0000000000000000e+00 0.0000000000000000e+00 0.0000000000000000e+00 
0.0000000000000000e+00 0.0000000000000000e+00 0.0000000000000000e+00 
0.0000000000000000e+00 0.0000000000000000e+00 0.0000000000000000e+00 
0.0000000000000000e+00 0.0000000000000000e+00 0.0000000000000000e+00 
0.0000000000000000e+00 0.0000000000000000e+00 0.0000000000000000e+00 
0.0000000000000000e+00 0.0000000000000000e+00 0.0000000000000000e+00 

VECTORS Forces0 double
3.0448370285813642e+00 -2.5355459728926851e-21 -9.1418785744080633e-02 
3.0382695565549485e+00 1.7254148236220839e-18 -2.2876316865164678e-01 
3.0214164532311312e+00 -3.9859513779032168e-18 -3.7151783980353908e-01 
2.9797449648425194e+00 1.7188763382651527e-18 -4.9821462948664746e-01 
2.9093136244869764e+00 -1.2049818156220973e-20 -5.9812399495646473e-01 
2.8180614604847212e+00 1.6926052343118953e-18 -6.6515943462836835e-01 
2.7138513711013128e+00 3.3689046159589508e-18 -7.0811507010182040e-01 
2.5942301141993096e+00 1.6987116259914679e-18 -7.3999575008525487e-01 
2.4540342185324859e+00 1.6789759091956657e-18 -7.6187893485017599e-01 
2.2952836536287125e+00 -1.6731922498797981e-18 -7.6753866291710693e-01 
2.1214635404154740e+00 2.9020016785925223e-37 -7.5390755567501888e-01 
1.9313133136753902e+00 -2.8211864419734900e-37 -7.1904376980776186e-01 
1.7197048872865488e+00 1.6206069036182094e-18 -6.5918563579313272e-01 
1.4691957520104386e+00 4.2517100659396559e-18 -5.6949184889399540e-01 
1.1199299375515235e+00 4.7163980157960314e-18 -4.3444082229300995e-01 
1.7020501362738599e-01 1.7901588984154622e-18 4.3101515696395526e-01 
9.5893070181989504e-02 -2.0363423063191346e-21 2.4392381413174588e-01 
3.2638889028601341e-02 -1.5811378768197998e-18 8.6803589499248685e-02 
-6.4348120858899505e-01 1.5114734983601433e-18 2.0000941572015284e-02 
-6.4718564265704570e-01 1.5167896433963992e-18 4.8924760290246568e-02 
-6.4450809146124510e-01 -3.0786972497391143e-21 8.0076314192082151e-02 
-6.3368921057978789e-01 -2.4375819120607788e-18 1.0721178868453768e-01 
-6.1504092750440320e-01 1.5519194428008514e-18 1.2825908835852823e-01 
-5.8795973172266158e-01 2.6141200197615949e-21 1.4106926427908684e-01 
-5.5195738488247670e-01 1.5743204002778500e-18 1.4672721868943925e-01 
-5.0903780206008142e-01 3.0371402378562604e-18 1.4843631594313195e-01 
-4.6204477891281914e-01 1.5883276861061260e-18 1.4720774399481323e-01 
-4.1199485066626262e-01 1.5980956257529477e-18 1.4196554527709634e-01 
-3.5956795192455415e-01 2.1927692308248215e-21 1.3240072308756767e-01 
-3.0570236937117284e-01 -2.3509887016445750e-38 1.1881963630682313e-01 
-2.5048263874784038e-01 -6.2954241069114952e-24 1.0134822803430950e-01 
-1.9897342108925087e-01 6.6813055063549158e-24 8.2833600835796162e-02 
-1.5776224066580483e-01 -1.9222862861795149e-18 6.7481925716210533e-02 

