# vtk DataFile Version 2.0

ASCII

DATASET UNSTRUCTURED_GRID

POINTS 68 float 

-5.0000000000000003e-02  2.9999999999999999e-01  0.0000000000000000e+00
-5.0000000000000003e-02  2.9999999999999999e-01  6.6666666669999999e-02
-5.0000000000000003e-02  0.0000000000000000e+00  6.6666666669999999e-02
-5.0000000000000003e-02  0.0000000000000000e+00  0.0000000000000000e+00
-5.0000000000000003e-02  2.9999999999999999e-01  1.3333333330000000e-01
-5.0000000000000003e-02  0.0000000000000000e+00  1.3333333330000000e-01
-5.0000000000000003e-02  2.9999999999999999e-01  2.0000000000000001e-01
-5.0000000000000003e-02  0.0000000000000000e+00  2.0000000000000001e-01
-5.0000000000000003e-02  2.9999999999999999e-01  2.6666666670000000e-01
-5.0000000000000003e-02  0.0000000000000000e+00  2.6666666670000000e-01
-5.0000000000000003e-02  2.9999999999999999e-01  3.3333333329999998e-01
-5.0000000000000003e-02  0.0000000000000000e+00  3.3333333329999998e-01
-5.0000000000000003e-02  2.9999999999999999e-01  4.0000000000000002e-01
-5.0000000000000003e-02  0.0000000000000000e+00  4.0000000000000002e-01
-5.0000000000000003e-02  2.9999999999999999e-01  4.6666666670000001e-01
-5.0000000000000003e-02  0.0000000000000000e+00  4.6666666670000001e-01
-5.0000000000000003e-02  2.9999999999999999e-01  5.3333333329999999e-01
-5.0000000000000003e-02  0.0000000000000000e+00  5.3333333329999999e-01
-5.0000000000000003e-02  2.9999999999999999e-01  5.9999999999999998e-01
-5.0000000000000003e-02  0.0000000000000000e+00  5.9999999999999998e-01
-5.0000000000000003e-02  2.9999999999999999e-01  6.6666666669999997e-01
-5.0000000000000003e-02  0.0000000000000000e+00  6.6666666669999997e-01
-5.0000000000000003e-02  2.9999999999999999e-01  7.3333333329999995e-01
-5.0000000000000003e-02  0.0000000000000000e+00  7.3333333329999995e-01
-5.0000000000000003e-02  2.9999999999999999e-01  8.0000000000000004e-01
-5.0000000000000003e-02  0.0000000000000000e+00  8.0000000000000004e-01
-5.0000000000000003e-02  2.9999999999999999e-01  8.6666666670000003e-01
-5.0000000000000003e-02  0.0000000000000000e+00  8.6666666670000003e-01
-5.0000000000000003e-02  2.9999999999999999e-01  9.3333333330000001e-01
-5.0000000000000003e-02  0.0000000000000000e+00  9.3333333330000001e-01
-5.0000000000000003e-02  2.9999999999999999e-01  1.0000000000000000e+00
-5.0000000000000003e-02  0.0000000000000000e+00  1.0000000000000000e+00
-1.6666666670000000e-02  2.9999999999999999e-01  1.0000000000000000e+00
-1.6666666670000000e-02  0.0000000000000000e+00  1.0000000000000000e+00
1.6666666670000000e-02  2.9999999999999999e-01  1.0000000000000000e+00
1.6666666670000000e-02  0.0000000000000000e+00  1.0000000000000000e+00
5.0000000000000003e-02  2.9999999999999999e-01  1.0000000000000000e+00
5.0000000000000003e-02  0.0000000000000000e+00  1.0000000000000000e+00
5.0000000000000003e-02  2.9999999999999999e-01  0.0000000000000000e+00
5.0000000000000003e-02  0.0000000000000000e+00  0.0000000000000000e+00
5.0000000000000003e-02  0.0000000000000000e+00  6.6666666669999999e-02
5.0000000000000003e-02  2.9999999999999999e-01  6.6666666669999999e-02
5.0000000000000003e-02  0.0000000000000000e+00  1.3333333330000000e-01
5.0000000000000003e-02  2.9999999999999999e-01  1.3333333330000000e-01
5.0000000000000003e-02  0.0000000000000000e+00  2.0000000000000001e-01
5.0000000000000003e-02  2.9999999999999999e-01  2.0000000000000001e-01
5.0000000000000003e-02  0.0000000000000000e+00  2.6666666670000000e-01
5.0000000000000003e-02  2.9999999999999999e-01  2.6666666670000000e-01
5.0000000000000003e-02  0.0000000000000000e+00  3.3333333329999998e-01
5.0000000000000003e-02  2.9999999999999999e-01  3.3333333329999998e-01
5.0000000000000003e-02  0.0000000000000000e+00  4.0000000000000002e-01
5.0000000000000003e-02  2.9999999999999999e-01  4.0000000000000002e-01
5.0000000000000003e-02  0.0000000000000000e+00  4.6666666670000001e-01
5.0000000000000003e-02  2.9999999999999999e-01  4.6666666670000001e-01
5.0000000000000003e-02  0.0000000000000000e+00  5.3333333329999999e-01
5.0000000000000003e-02  2.9999999999999999e-01  5.3333333329999999e-01
5.0000000000000003e-02  0.0000000000000000e+00  5.9999999999999998e-01
5.0000000000000003e-02  2.9999999999999999e-01  5.9999999999999998e-01
5.0000000000000003e-02  0.0000000000000000e+00  6.6666666669999997e-01
5.0000000000000003e-02  2.9999999999999999e-01  6.6666666669999997e-01
5.0000000000000003e-02  0.0000000000000000e+00  7.3333333329999995e-01
5.0000000000000003e-02  2.9999999999999999e-01  7.3333333329999995e-01
5.0000000000000003e-02  0.0000000000000000e+00  8.0000000000000004e-01
5.0000000000000003e-02  2.9999999999999999e-01  8.0000000000000004e-01
5.0000000000000003e-02  0.0000000000000000e+00  8.6666666670000003e-01
5.0000000000000003e-02  2.9999999999999999e-01  8.6666666670000003e-01
5.0000000000000003e-02  0.0000000000000000e+00  9.3333333330000001e-01
5.0000000000000003e-02  2.9999999999999999e-01  9.3333333330000001e-01

CELLS 0 0


CELL_TYPES 0


POINT_DATA 68

VECTORS VertexNormals float

0.0000000000000000e+00 0.0000000000000000e+00 0.0000000000000000e+00 
0.0000000000000000e+00 0.0000000000000000e+00 0.0000000000000000e+00 
0.0000000000000000e+00 0.0000000000000000e+00 0.0000000000000000e+00 
0.0000000000000000e+00 0.0000000000000000e+00 0.0000000000000000e+00 
0.0000000000000000e+00 0.0000000000000000e+00 0.0000000000000000e+00 
0.0000000000000000e+00 0.0000000000000000e+00 0.0000000000000000e+00 
0.0000000000000000e+00 0.0000000000000000e+00 0.0000000000000000e+00 
0.0000000000000000e+00 0.0000000000000000e+00 0.0000000000000000e+00 
0.0000000000000000e+00 0.0000000000000000e+00 0.0000000000000000e+00 
0.0000000000000000e+00 0.0000000000000000e+00 0.0000000000000000e+00 
0.0000000000000000e+00 0.0000000000000000e+00 0.0000000000000000e+00 
0.0000000000000000e+00 0.0000000000000000e+00 0.0000000000000000e+00 
0.0000000000000000e+00 0.0000000000000000e+00 0.0000000000000000e+00 
0.0000000000000000e+00 0.0000000000000000e+00 0.0000000000000000e+00 
0.0000000000000000e+00 0.0000000000000000e+00 0.0000000000000000e+00 
0.0000000000000000e+00 0.0000000000000000e+00 0.0000000000000000e+00 
0.0000000000000000e+00 0.0000000000000000e+00 0.0000000000000000e+00 
0.0000000000000000e+00 0.0000000000000000e+00 0.0000000000000000e+00 
0.0000000000000000e+00 0.0000000000000000e+00 0.0000000000000000e+00 
0.0000000000000000e+00 0.0000000000000000e+00 0.0000000000000000e+00 
0.0000000000000000e+00 0.0000000000000000e+00 0.0000000000000000e+00 
0.0000000000000000e+00 0.0000000000000000e+00 0.0000000000000000e+00 
0.0000000000000000e+00 0.0000000000000000e+00 0.0000000000000000e+00 
0.0000000000000000e+00 0.0000000000000000e+00 0.0000000000000000e+00 
0.0000000000000000e+00 0.0000000000000000e+00 0.0000000000000000e+00 
0.0000000000000000e+00 0.0000000000000000e+00 0.0000000000000000e+00 
0.0000000000000000e+00 0.0000000000000000e+00 0.0000000000000000e+00 
0.0000000000000000e+00 0.0000000000000000e+00 0.0000000000000000e+00 
0.0000000000000000e+00 0.0000000000000000e+00 0.0000000000000000e+00 
0.0000000000000000e+00 0.0000000000000000e+00 0.0000000000000000e+00 
0.0000000000000000e+00 0.0000000000000000e+00 0.0000000000000000e+00 
0.0000000000000000e+00 0.0000000000000000e+00 0.0000000000000000e+00 
0.0000000000000000e+00 0.0000000000000000e+00 0.0000000000000000e+00 
0.0000000000000000e+00 0.0000000000000000e+00 0.0000000000000000e+00 
0.0000000000000000e+00 0.0000000000000000e+00 0.0000000000000000e+00 
0.0000000000000000e+00 0.0000000000000000e+00 0.0000000000000000e+00 
0.0000000000000000e+00 0.0000000000000000e+00 0.0000000000000000e+00 
0.0000000000000000e+00 0.0000000000000000e+00 0.0000000000000000e+00 
0.0000000000000000e+00 0.0000000000000000e+00 0.0000000000000000e+00 
0.0000000000000000e+00 0.0000000000000000e+00 0.0000000000000000e+00 
0.0000000000000000e+00 0.0000000000000000e+00 0.0000000000000000e+00 
0.0000000000000000e+00 0.0000000000000000e+00 0.0000000000000000e+00 
0.0000000000000000e+00 0.0000000000000000e+00 0.0000000000000000e+00 
0.0000000000000000e+00 0.0000000000000000e+00 0.0000000000000000e+00 
0.0000000000000000e+00 0.0000000000000000e+00 0.0000000000000000e+00 
0.0000000000000000e+00 0.0000000000000000e+00 0.0000000000000000e+00 
0.0000000000000000e+00 0.0000000000000000e+00 0.0000000000000000e+00 
0.0000000000000000e+00 0.0000000000000000e+00 0.0000000000000000e+00 
0.0000000000000000e+00 0.0000000000000000e+00 0.0000000000000000e+00 
0.0000000000000000e+00 0.0000000000000000e+00 0.0000000000000000e+00 
0.0000000000000000e+00 0.0000000000000000e+00 0.0000000000000000e+00 
0.0000000000000000e+00 0.0000000000000000e+00 0.0000000000000000e+00 
0.0000000000000000e+00 0.0000000000000000e+00 0.0000000000000000e+00 
0.0000000000000000e+00 0.0000000000000000e+00 0.0000000000000000e+00 
0.0000000000000000e+00 0.0000000000000000e+00 0.0000000000000000e+00 
0.0000000000000000e+00 0.0000000000000000e+00 0.0000000000000000e+00 
0.0000000000000000e+00 0.0000000000000000e+00 0.0000000000000000e+00 
0.0000000000000000e+00 0.0000000000000000e+00 0.0000000000000000e+00 
0.0000000000000000e+00 0.0000000000000000e+00 0.0000000000000000e+00 
0.0000000000000000e+00 0.0000000000000000e+00 0.0000000000000000e+00 
0.0000000000000000e+00 0.0000000000000000e+00 0.0000000000000000e+00 
0.0000000000000000e+00 0.0000000000000000e+00 0.0000000000000000e+00 
0.0000000000000000e+00 0.0000000000000000e+00 0.0000000000000000e+00 
0.0000000000000000e+00 0.0000000000000000e+00 0.0000000000000000e+00 
0.0000000000000000e+00 0.0000000000000000e+00 0.0000000000000000e+00 
0.0000000000000000e+00 0.0000000000000000e+00 0.0000000000000000e+00 
0.0000000000000000e+00 0.0000000000000000e+00 0.0000000000000000e+00 
0.0000000000000000e+00 0.0000000000000000e+00 0.0000000000000000e+00 

VECTORS Displacements0 float
0.0000000000000000e+00 0.0000000000000000e+00 0.0000000000000000e+00 
2.6389013925619082e-03 0.0000000000000000e+00 2.6315249202102107e-03 
2.6389014047432744e-03 0.0000000000000000e+00 2.6315248912977523e-03 
0.0000000000000000e+00 0.0000000000000000e+00 0.0000000000000000e+00 
8.0583257772293432e-03 0.0000000000000000e+00 4.5735915377989479e-03 
8.0583257282574421e-03 0.0000000000000000e+00 4.5735915068823166e-03 
1.5828417731466548e-02 0.0000000000000000e+00 5.7621644648543123e-03 
1.5828417630417854e-02 0.0000000000000000e+00 5.7621644715847853e-03 
2.5184550865242315e-02 0.0000000000000000e+00 6.2660936703907363e-03 
2.5184550803909456e-02 0.0000000000000000e+00 6.2660936905310164e-03 
3.5524691233357462e-02 0.0000000000000000e+00 6.1737366219761693e-03 
3.5524691245160098e-02 0.0000000000000000e+00 6.1737366130565022e-03 
4.6198317930397095e-02 0.0000000000000000e+00 5.6150561454183581e-03 
4.6198317959702556e-02 0.0000000000000000e+00 5.6150561059492236e-03 
5.6739077328527267e-02 0.0000000000000000e+00 4.7935521367305969e-03 
5.6739077330072218e-02 0.0000000000000000e+00 4.7935521003147664e-03 
6.6954012307293143e-02 0.0000000000000000e+00 3.8670903826916909e-03 
6.6954012298295992e-02 0.0000000000000000e+00 3.8670903702125829e-03 
7.6692630511573601e-02 0.0000000000000000e+00 2.9203350816719379e-03 
7.6692630519104271e-02 0.0000000000000000e+00 2.9203350850675776e-03 
8.5883539509537657e-02 0.0000000000000000e+00 2.0852713279492724e-03 
8.5883539519919810e-02 0.0000000000000000e+00 2.0852713321833864e-03 
9.4749120648105284e-02 0.0000000000000000e+00 1.4594260643525135e-03 
9.4749120644796500e-02 0.0000000000000000e+00 1.4594260639025965e-03 
1.0365628464967067e-01 0.0000000000000000e+00 9.9051623754866074e-04 
1.0365628464196693e-01 0.0000000000000000e+00 9.9051623002813401e-04 
1.1278851828148523e-01 0.0000000000000000e+00 5.2849984553265689e-04 
1.1278851827731161e-01 0.0000000000000000e+00 5.2849983804337166e-04 
1.2204418674229986e-01 0.0000000000000000e+00 -1.1179607837420204e-05 
1.2204418674455537e-01 0.0000000000000000e+00 -1.1179602169690030e-05 
1.3133272112789843e-01 0.0000000000000000e+00 -6.2719854718164270e-04 
1.3133272113661237e-01 0.0000000000000000e+00 -6.2719852943403463e-04 
1.3102325462636527e-01 0.0000000000000000e+00 -5.2872275404665858e-03 
1.3102325463358069e-01 0.0000000000000000e+00 -5.2872275381482406e-03 
1.3070261537638639e-01 0.0000000000000000e+00 -9.8703231375942436e-03 
1.3070261538117692e-01 0.0000000000000000e+00 -9.8703231428844459e-03 
1.3035459703152580e-01 0.0000000000000000e+00 -1.4540323442609051e-02 
1.3035459703375779e-01 0.0000000000000000e+00 -1.4540323449191379e-02 
0.0000000000000000e+00 0.0000000000000000e+00 0.0000000000000000e+00 
0.0000000000000000e+00 0.0000000000000000e+00 0.0000000000000000e+00 
2.3749627786284738e-03 0.0000000000000000e+00 -2.5633499865841450e-03 
2.3749628113385844e-03 0.0000000000000000e+00 -2.5633499375123350e-03 
7.5077716748059888e-03 0.0000000000000000e+00 -4.7085410963826155e-03 
7.5077716708880221e-03 0.0000000000000000e+00 -4.7085410944346009e-03 
1.4962074634261822e-02 0.0000000000000000e+00 -6.4933422852984654e-03 
1.4962074657425722e-02 0.0000000000000000e+00 -6.4933422885988185e-03 
2.4054140980828604e-02 0.0000000000000000e+00 -7.9892206255913704e-03 
2.4054140994499887e-02 0.0000000000000000e+00 -7.9892206232677863e-03 
3.4236240495150269e-02 0.0000000000000000e+00 -9.1925864514964175e-03 
3.4236240475321832e-02 0.0000000000000000e+00 -9.1925864580355912e-03 
4.4868504029131097e-02 0.0000000000000000e+00 -1.0064964941537448e-02 
4.4868504008632799e-02 0.0000000000000000e+00 -1.0064964958803772e-02 
5.5448124600478606e-02 0.0000000000000000e+00 -1.0661539649026539e-02 
5.5448124599321365e-02 0.0000000000000000e+00 -1.0661539654099318e-02 
6.5747778680501301e-02 0.0000000000000000e+00 -1.1073418178026127e-02 
6.5747778670377038e-02 0.0000000000000000e+00 -1.1073418155751592e-02 
7.5592703392646163e-02 0.0000000000000000e+00 -1.1340098846096403e-02 
7.5592703353921542e-02 0.0000000000000000e+00 -1.1340098812995187e-02 
8.4878729262459623e-02 0.0000000000000000e+00 -1.1582638500579528e-02 
8.4878729228611963e-02 0.0000000000000000e+00 -1.1582638482167819e-02 
9.3788666033721227e-02 0.0000000000000000e+00 -1.1969567428689026e-02 
9.3788666030203888e-02 0.0000000000000000e+00 -1.1969567428044392e-02 
1.0269189012717644e-01 0.0000000000000000e+00 -1.2551995679829474e-02 
1.0269189013682856e-01 0.0000000000000000e+00 -1.2551995691923508e-02 
1.1180628789112440e-01 0.0000000000000000e+00 -1.3231535072866351e-02 
1.1180628789912533e-01 0.0000000000000000e+00 -1.3231535091126775e-02 
1.2105661954534236e-01 0.0000000000000000e+00 -1.3898649625639008e-02 
1.2105661954875206e-01 0.0000000000000000e+00 -1.3898649635558853e-02 

