# vtk DataFile Version 2.0

ASCII

DATASET UNSTRUCTURED_GRID

POINTS 68 double 

-5.0000000000000003e-02  2.9999999999999999e-01  0.0000000000000000e+00
-5.0000000000000003e-02  2.9999999999999999e-01  6.6666666669999999e-02
-5.0000000000000003e-02  0.0000000000000000e+00  6.6666666669999999e-02
-5.0000000000000003e-02  0.0000000000000000e+00  0.0000000000000000e+00
-5.0000000000000003e-02  2.9999999999999999e-01  1.3333333330000000e-01
-5.0000000000000003e-02  0.0000000000000000e+00  1.3333333330000000e-01
-5.0000000000000003e-02  2.9999999999999999e-01  2.0000000000000001e-01
-5.0000000000000003e-02  0.0000000000000000e+00  2.0000000000000001e-01
-5.0000000000000003e-02  2.9999999999999999e-01  2.6666666670000000e-01
-5.0000000000000003e-02  0.0000000000000000e+00  2.6666666670000000e-01
-5.0000000000000003e-02  2.9999999999999999e-01  3.3333333329999998e-01
-5.0000000000000003e-02  0.0000000000000000e+00  3.3333333329999998e-01
-5.0000000000000003e-02  2.9999999999999999e-01  4.0000000000000002e-01
-5.0000000000000003e-02  0.0000000000000000e+00  4.0000000000000002e-01
-5.0000000000000003e-02  2.9999999999999999e-01  4.6666666670000001e-01
-5.0000000000000003e-02  0.0000000000000000e+00  4.6666666670000001e-01
-5.0000000000000003e-02  2.9999999999999999e-01  5.3333333329999999e-01
-5.0000000000000003e-02  0.0000000000000000e+00  5.3333333329999999e-01
-5.0000000000000003e-02  2.9999999999999999e-01  5.9999999999999998e-01
-5.0000000000000003e-02  0.0000000000000000e+00  5.9999999999999998e-01
-5.0000000000000003e-02  2.9999999999999999e-01  6.6666666669999997e-01
-5.0000000000000003e-02  0.0000000000000000e+00  6.6666666669999997e-01
-5.0000000000000003e-02  2.9999999999999999e-01  7.3333333329999995e-01
-5.0000000000000003e-02  0.0000000000000000e+00  7.3333333329999995e-01
-5.0000000000000003e-02  2.9999999999999999e-01  8.0000000000000004e-01
-5.0000000000000003e-02  0.0000000000000000e+00  8.0000000000000004e-01
-5.0000000000000003e-02  2.9999999999999999e-01  8.6666666670000003e-01
-5.0000000000000003e-02  0.0000000000000000e+00  8.6666666670000003e-01
-5.0000000000000003e-02  2.9999999999999999e-01  9.3333333330000001e-01
-5.0000000000000003e-02  0.0000000000000000e+00  9.3333333330000001e-01
-5.0000000000000003e-02  2.9999999999999999e-01  1.0000000000000000e+00
-5.0000000000000003e-02  0.0000000000000000e+00  1.0000000000000000e+00
-1.6666666670000000e-02  2.9999999999999999e-01  1.0000000000000000e+00
-1.6666666670000000e-02  0.0000000000000000e+00  1.0000000000000000e+00
1.6666666670000000e-02  2.9999999999999999e-01  1.0000000000000000e+00
1.6666666670000000e-02  0.0000000000000000e+00  1.0000000000000000e+00
5.0000000000000003e-02  2.9999999999999999e-01  1.0000000000000000e+00
5.0000000000000003e-02  0.0000000000000000e+00  1.0000000000000000e+00
5.0000000000000003e-02  2.9999999999999999e-01  0.0000000000000000e+00
5.0000000000000003e-02  0.0000000000000000e+00  0.0000000000000000e+00
5.0000000000000003e-02  0.0000000000000000e+00  6.6666666669999999e-02
5.0000000000000003e-02  2.9999999999999999e-01  6.6666666669999999e-02
5.0000000000000003e-02  0.0000000000000000e+00  1.3333333330000000e-01
5.0000000000000003e-02  2.9999999999999999e-01  1.3333333330000000e-01
5.0000000000000003e-02  0.0000000000000000e+00  2.0000000000000001e-01
5.0000000000000003e-02  2.9999999999999999e-01  2.0000000000000001e-01
5.0000000000000003e-02  0.0000000000000000e+00  2.6666666670000000e-01
5.0000000000000003e-02  2.9999999999999999e-01  2.6666666670000000e-01
5.0000000000000003e-02  0.0000000000000000e+00  3.3333333329999998e-01
5.0000000000000003e-02  2.9999999999999999e-01  3.3333333329999998e-01
5.0000000000000003e-02  0.0000000000000000e+00  4.0000000000000002e-01
5.0000000000000003e-02  2.9999999999999999e-01  4.0000000000000002e-01
5.0000000000000003e-02  0.0000000000000000e+00  4.6666666670000001e-01
5.0000000000000003e-02  2.9999999999999999e-01  4.6666666670000001e-01
5.0000000000000003e-02  0.0000000000000000e+00  5.3333333329999999e-01
5.0000000000000003e-02  2.9999999999999999e-01  5.3333333329999999e-01
5.0000000000000003e-02  0.0000000000000000e+00  5.9999999999999998e-01
5.0000000000000003e-02  2.9999999999999999e-01  5.9999999999999998e-01
5.0000000000000003e-02  0.0000000000000000e+00  6.6666666669999997e-01
5.0000000000000003e-02  2.9999999999999999e-01  6.6666666669999997e-01
5.0000000000000003e-02  0.0000000000000000e+00  7.3333333329999995e-01
5.0000000000000003e-02  2.9999999999999999e-01  7.3333333329999995e-01
5.0000000000000003e-02  0.0000000000000000e+00  8.0000000000000004e-01
5.0000000000000003e-02  2.9999999999999999e-01  8.0000000000000004e-01
5.0000000000000003e-02  0.0000000000000000e+00  8.6666666670000003e-01
5.0000000000000003e-02  2.9999999999999999e-01  8.6666666670000003e-01
5.0000000000000003e-02  0.0000000000000000e+00  9.3333333330000001e-01
5.0000000000000003e-02  2.9999999999999999e-01  9.3333333330000001e-01

CELLS 0 0


CELL_TYPES 0


POINT_DATA 68

VECTORS VertexNormals double

0.0000000000000000e+00 0.0000000000000000e+00 0.0000000000000000e+00 
0.0000000000000000e+00 0.0000000000000000e+00 0.0000000000000000e+00 
0.0000000000000000e+00 0.0000000000000000e+00 0.0000000000000000e+00 
0.0000000000000000e+00 0.0000000000000000e+00 0.0000000000000000e+00 
0.0000000000000000e+00 0.0000000000000000e+00 0.0000000000000000e+00 
0.0000000000000000e+00 0.0000000000000000e+00 0.0000000000000000e+00 
0.0000000000000000e+00 0.0000000000000000e+00 0.0000000000000000e+00 
0.0000000000000000e+00 0.0000000000000000e+00 0.0000000000000000e+00 
0.0000000000000000e+00 0.0000000000000000e+00 0.0000000000000000e+00 
0.0000000000000000e+00 0.0000000000000000e+00 0.0000000000000000e+00 
0.0000000000000000e+00 0.0000000000000000e+00 0.0000000000000000e+00 
0.0000000000000000e+00 0.0000000000000000e+00 0.0000000000000000e+00 
0.0000000000000000e+00 0.0000000000000000e+00 0.0000000000000000e+00 
0.0000000000000000e+00 0.0000000000000000e+00 0.0000000000000000e+00 
0.0000000000000000e+00 0.0000000000000000e+00 0.0000000000000000e+00 
0.0000000000000000e+00 0.0000000000000000e+00 0.0000000000000000e+00 
0.0000000000000000e+00 0.0000000000000000e+00 0.0000000000000000e+00 
0.0000000000000000e+00 0.0000000000000000e+00 0.0000000000000000e+00 
0.0000000000000000e+00 0.0000000000000000e+00 0.0000000000000000e+00 
0.0000000000000000e+00 0.0000000000000000e+00 0.0000000000000000e+00 
0.0000000000000000e+00 0.0000000000000000e+00 0.0000000000000000e+00 
0.0000000000000000e+00 0.0000000000000000e+00 0.0000000000000000e+00 
0.0000000000000000e+00 0.0000000000000000e+00 0.0000000000000000e+00 
0.0000000000000000e+00 0.0000000000000000e+00 0.0000000000000000e+00 
0.0000000000000000e+00 0.0000000000000000e+00 0.0000000000000000e+00 
0.0000000000000000e+00 0.0000000000000000e+00 0.0000000000000000e+00 
0.0000000000000000e+00 0.0000000000000000e+00 0.0000000000000000e+00 
0.0000000000000000e+00 0.0000000000000000e+00 0.0000000000000000e+00 
0.0000000000000000e+00 0.0000000000000000e+00 0.0000000000000000e+00 
0.0000000000000000e+00 0.0000000000000000e+00 0.0000000000000000e+00 
0.0000000000000000e+00 0.0000000000000000e+00 0.0000000000000000e+00 
0.0000000000000000e+00 0.0000000000000000e+00 0.0000000000000000e+00 
0.0000000000000000e+00 0.0000000000000000e+00 0.0000000000000000e+00 
0.0000000000000000e+00 0.0000000000000000e+00 0.0000000000000000e+00 
0.0000000000000000e+00 0.0000000000000000e+00 0.0000000000000000e+00 
0.0000000000000000e+00 0.0000000000000000e+00 0.0000000000000000e+00 
0.0000000000000000e+00 0.0000000000000000e+00 0.0000000000000000e+00 
0.0000000000000000e+00 0.0000000000000000e+00 0.0000000000000000e+00 
0.0000000000000000e+00 0.0000000000000000e+00 0.0000000000000000e+00 
0.0000000000000000e+00 0.0000000000000000e+00 0.0000000000000000e+00 
0.0000000000000000e+00 0.0000000000000000e+00 0.0000000000000000e+00 
0.0000000000000000e+00 0.0000000000000000e+00 0.0000000000000000e+00 
0.0000000000000000e+00 0.0000000000000000e+00 0.0000000000000000e+00 
0.0000000000000000e+00 0.0000000000000000e+00 0.0000000000000000e+00 
0.0000000000000000e+00 0.0000000000000000e+00 0.0000000000000000e+00 
0.0000000000000000e+00 0.0000000000000000e+00 0.0000000000000000e+00 
0.0000000000000000e+00 0.0000000000000000e+00 0.0000000000000000e+00 
0.0000000000000000e+00 0.0000000000000000e+00 0.0000000000000000e+00 
0.0000000000000000e+00 0.0000000000000000e+00 0.0000000000000000e+00 
0.0000000000000000e+00 0.0000000000000000e+00 0.0000000000000000e+00 
0.0000000000000000e+00 0.0000000000000000e+00 0.0000000000000000e+00 
0.0000000000000000e+00 0.0000000000000000e+00 0.0000000000000000e+00 
0.0000000000000000e+00 0.0000000000000000e+00 0.0000000000000000e+00 
0.0000000000000000e+00 0.0000000000000000e+00 0.0000000000000000e+00 
0.0000000000000000e+00 0.0000000000000000e+00 0.0000000000000000e+00 
0.0000000000000000e+00 0.0000000000000000e+00 0.0000000000000000e+00 
0.0000000000000000e+00 0.0000000000000000e+00 0.0000000000000000e+00 
0.0000000000000000e+00 0.0000000000000000e+00 0.0000000000000000e+00 
0.0000000000000000e+00 0.0000000000000000e+00 0.0000000000000000e+00 
0.0000000000000000e+00 0.0000000000000000e+00 0.0000000000000000e+00 
0.0000000000000000e+00 0.0000000000000000e+00 0.0000000000000000e+00 
0.0000000000000000e+00 0.0000000000000000e+00 0.0000000000000000e+00 
0.0000000000000000e+00 0.0000000000000000e+00 0.0000000000000000e+00 
0.0000000000000000e+00 0.0000000000000000e+00 0.0000000000000000e+00 
0.0000000000000000e+00 0.0000000000000000e+00 0.0000000000000000e+00 
0.0000000000000000e+00 0.0000000000000000e+00 0.0000000000000000e+00 
0.0000000000000000e+00 0.0000000000000000e+00 0.0000000000000000e+00 
0.0000000000000000e+00 0.0000000000000000e+00 0.0000000000000000e+00 

VECTORS Displacements0 double
0.0000000000000000e+00 0.0000000000000000e+00 0.0000000000000000e+00 
4.4262716075266807e-03 0.0000000000000000e+00 4.1971331661629918e-03 
4.4262717519603471e-03 0.0000000000000000e+00 4.1971329997901857e-03 
0.0000000000000000e+00 0.0000000000000000e+00 0.0000000000000000e+00 
1.4106096996419633e-02 0.0000000000000000e+00 7.1924273311054360e-03 
1.4106097067243695e-02 0.0000000000000000e+00 7.1924270472758997e-03 
2.8523138651263553e-02 0.0000000000000000e+00 8.8046056701265689e-03 
2.8523138432403547e-02 0.0000000000000000e+00 8.8046055222745258e-03 
4.6892192587500540e-02 0.0000000000000000e+00 9.0726137345726356e-03 
4.6892192331159030e-02 0.0000000000000000e+00 9.0726137455759241e-03 
6.8793008418274598e-02 0.0000000000000000e+00 7.9544638346237054e-03 
6.8793008513722512e-02 0.0000000000000000e+00 7.9544638128513367e-03 
9.3703597707757172e-02 0.0000000000000000e+00 5.3678917567550333e-03 
9.3703598186200873e-02 0.0000000000000000e+00 5.3678915651846695e-03 
1.2095095990252219e-01 0.0000000000000000e+00 1.3690047436997754e-03 
1.2095096038944438e-01 0.0000000000000000e+00 1.3690044876848509e-03 
1.4994146648701379e-01 0.0000000000000000e+00 -3.8074055369726328e-03 
1.4994146666020891e-01 0.0000000000000000e+00 -3.8074056548152366e-03 
1.8027390272252286e-01 0.0000000000000000e+00 -9.9468103051678081e-03 
1.8027390264570131e-01 0.0000000000000000e+00 -9.9468102435295927e-03 
2.1164174081248147e-01 0.0000000000000000e+00 -1.6902044027596583e-02 
2.1164174075049400e-01 0.0000000000000000e+00 -1.6902043942886781e-02 
2.4374586529505354e-01 0.0000000000000000e+00 -2.4507749208723000e-02 
2.4374586530579978e-01 0.0000000000000000e+00 -2.4507749235652306e-02 
2.7631108954014105e-01 0.0000000000000000e+00 -3.2591279071946692e-02 
2.7631108946155003e-01 0.0000000000000000e+00 -3.2591279162771936e-02 
3.0913736494230171e-01 0.0000000000000000e+00 -4.0997844534250295e-02 
3.0913736480006382e-01 0.0000000000000000e+00 -4.0997844571634426e-02 
3.4206020687660760e-01 0.0000000000000000e+00 -4.9586945437266099e-02 
3.4206020705344742e-01 0.0000000000000000e+00 -4.9586945433603064e-02 
3.7504373762592486e-01 0.0000000000000000e+00 -5.8280420878210691e-02 
3.7504373840773186e-01 0.0000000000000000e+00 -5.8280420952102320e-02 
3.7076395856377231e-01 0.0000000000000000e+00 -7.4768664998541831e-02 
3.7076395916045890e-01 0.0000000000000000e+00 -7.4768665169754306e-02 
3.6637715769967910e-01 0.0000000000000000e+00 -9.1220143627393266e-02 
3.6637715807069149e-01 0.0000000000000000e+00 -9.1220143813962901e-02 
3.6197748757865400e-01 0.0000000000000000e+00 -1.0767639963681892e-01 
3.6197748774607269e-01 0.0000000000000000e+00 -1.0767639976011276e-01 
0.0000000000000000e+00 0.0000000000000000e+00 0.0000000000000000e+00 
0.0000000000000000e+00 0.0000000000000000e+00 0.0000000000000000e+00 
3.9787611915164528e-03 0.0000000000000000e+00 -4.9918059166667566e-03 
3.9787615904901159e-03 0.0000000000000000e+00 -4.9918058461118457e-03 
1.2642776165304209e-02 0.0000000000000000e+00 -9.6991289207991396e-03 
1.2642776181835756e-02 0.0000000000000000e+00 -9.6991289106396015e-03 
2.5761274276333651e-02 0.0000000000000000e+00 -1.4502317346593928e-02 
2.5761274300867672e-02 0.0000000000000000e+00 -1.4502317390036731e-02 
4.2621955199072872e-02 0.0000000000000000e+00 -1.9793024853189740e-02 
4.2621955247145842e-02 0.0000000000000000e+00 -1.9793024879130681e-02 
6.2919538124754690e-02 0.0000000000000000e+00 -2.5785349554569164e-02 
6.2919538008911702e-02 0.0000000000000000e+00 -2.5785349506077668e-02 
8.6274979104616942e-02 0.0000000000000000e+00 -3.2457675237446533e-02 
8.6274978851092435e-02 0.0000000000000000e+00 -3.2457675157648518e-02 
1.1214107127680772e-01 0.0000000000000000e+00 -3.9670996952490004e-02 
1.1214107120416239e-01 0.0000000000000000e+00 -3.9670996936365971e-02 
1.3996389170243873e-01 0.0000000000000000e+00 -4.7353198246646772e-02 
1.3996389202785539e-01 0.0000000000000000e+00 -4.7353198307512313e-02 
1.6932509862275080e-01 0.0000000000000000e+00 -5.5455522926639862e-02 
1.6932509914922339e-01 0.0000000000000000e+00 -5.5455522967748784e-02 
1.9991757967432749e-01 0.0000000000000000e+00 -6.3891594841060162e-02 
1.9991758000056697e-01 0.0000000000000000e+00 -6.3891594799974791e-02 
2.3144853473044036e-01 0.0000000000000000e+00 -7.2555311156538960e-02 
2.3144853475688559e-01 0.0000000000000000e+00 -7.2555311135271860e-02 
2.6362844679493974e-01 0.0000000000000000e+00 -8.1331334473031064e-02 
2.6362844680654746e-01 0.0000000000000000e+00 -8.1331334629426724e-02 
2.9622258170999838e-01 0.0000000000000000e+00 -9.0136996611399428e-02 
2.9622258192150686e-01 0.0000000000000000e+00 -9.0136996913433978e-02 
3.2902705865772819e-01 0.0000000000000000e+00 -9.8931059656548387e-02 
3.2902705885761008e-01 0.0000000000000000e+00 -9.8931059848504602e-02 

