# vtk DataFile Version 2.0

ASCII

DATASET UNSTRUCTURED_GRID

POINTS 33 double 

-5.0000000000000003e-02  1.4999999999999997e-01  3.3333333335000000e-02
-5.0000000000000003e-02  1.4999999999999999e-01  9.9999999985000018e-02
-5.0000000000000003e-02  1.4999999999999997e-01  1.6666666665000002e-01
-5.0000000000000003e-02  1.4999999999999999e-01  2.3333333334999998e-01
-5.0000000000000003e-02  1.4999999999999997e-01  2.9999999999999993e-01
-5.0000000000000003e-02  1.4999999999999997e-01  3.6666666665000003e-01
-5.0000000000000003e-02  1.4999999999999999e-01  4.3333333335000002e-01
-5.0000000000000003e-02  1.4999999999999997e-01  5.0000000000000000e-01
-5.0000000000000003e-02  1.4999999999999999e-01  5.6666666664999987e-01
-5.0000000000000003e-02  1.4999999999999999e-01  6.3333333334999986e-01
-5.0000000000000003e-02  1.4999999999999997e-01  6.9999999999999984e-01
-5.0000000000000003e-02  1.4999999999999999e-01  7.6666666664999994e-01
-4.9999999999999996e-02  1.4999999999999999e-01  8.3333333334999982e-01
-5.0000000000000003e-02  1.4999999999999997e-01  8.9999999999999991e-01
-5.0000000000000003e-02  1.4999999999999999e-01  9.6666666664999990e-01
-3.3333333335000000e-02  1.4999999999999997e-01  9.9999999999999978e-01
0.0000000000000000e+00  1.4999999999999997e-01  1.0000000000000000e+00
3.3333333335000007e-02  1.4999999999999999e-01  1.0000000000000000e+00
5.0000000000000003e-02  1.4999999999999997e-01  3.3333333335000000e-02
5.0000000000000003e-02  1.4999999999999999e-01  9.9999999985000004e-02
5.0000000000000003e-02  1.4999999999999999e-01  1.6666666664999999e-01
5.0000000000000003e-02  1.5000000000000002e-01  2.3333333334999998e-01
5.0000000000000003e-02  1.4999999999999997e-01  2.9999999999999993e-01
5.0000000000000003e-02  1.4999999999999997e-01  3.6666666665000003e-01
5.0000000000000003e-02  1.5000000000000002e-01  4.3333333334999991e-01
5.0000000000000003e-02  1.4999999999999997e-01  5.0000000000000000e-01
5.0000000000000003e-02  1.5000000000000002e-01  5.6666666664999987e-01
5.0000000000000003e-02  1.5000000000000002e-01  6.3333333334999997e-01
5.0000000000000003e-02  1.4999999999999997e-01  6.9999999999999984e-01
5.0000000000000003e-02  1.4999999999999999e-01  7.6666666664999994e-01
5.0000000000000003e-02  1.5000000000000002e-01  8.3333333334999993e-01
5.0000000000000010e-02  1.4999999999999997e-01  8.9999999999999991e-01
5.0000000000000003e-02  1.5000000000000002e-01  9.6666666664999990e-01

CELLS 0 0


CELL_TYPES 0


POINT_DATA 33

VECTORS VertexNormals double

0.0000000000000000e+00 0.0000000000000000e+00 0.0000000000000000e+00 
0.0000000000000000e+00 0.0000000000000000e+00 0.0000000000000000e+00 
0.0000000000000000e+00 0.0000000000000000e+00 0.0000000000000000e+00 
0.0000000000000000e+00 0.0000000000000000e+00 0.0000000000000000e+00 
0.0000000000000000e+00 0.0000000000000000e+00 0.0000000000000000e+00 
0.0000000000000000e+00 0.0000000000000000e+00 0.0000000000000000e+00 
0.0000000000000000e+00 0.0000000000000000e+00 0.0000000000000000e+00 
0.0000000000000000e+00 0.0000000000000000e+00 0.0000000000000000e+00 
0.0000000000000000e+00 0.0000000000000000e+00 0.0000000000000000e+00 
0.0000000000000000e+00 0.0000000000000000e+00 0.0000000000000000e+00 
0.0000000000000000e+00 0.0000000000000000e+00 0.0000000000000000e+00 
0.0000000000000000e+00 0.0000000000000000e+00 0.0000000000000000e+00 
0.0000000000000000e+00 0.0000000000000000e+00 0.0000000000000000e+00 
0.0000000000000000e+00 0.0000000000000000e+00 0.0000000000000000e+00 
0.0000000000000000e+00 0.0000000000000000e+00 0.0000000000000000e+00 
0.0000000000000000e+00 0.0000000000000000e+00 0.0000000000000000e+00 
0.0000000000000000e+00 0.0000000000000000e+00 0.0000000000000000e+00 
0.0000000000000000e+00 0.0000000000000000e+00 0.0000000000000000e+00 
0.0000000000000000e+00 0.0000000000000000e+00 0.0000000000000000e+00 
0.0000000000000000e+00 0.0000000000000000e+00 0.0000000000000000e+00 
0.0000000000000000e+00 0.0000000000000000e+00 0.0000000000000000e+00 
0.0000000000000000e+00 0.0000000000000000e+00 0.0000000000000000e+00 
0.0000000000000000e+00 0.0000000000000000e+00 0.0000000000000000e+00 
0.0000000000000000e+00 0.0000000000000000e+00 0.0000000000000000e+00 
0.0000000000000000e+00 0.0000000000000000e+00 0.0000000000000000e+00 
0.0000000000000000e+00 0.0000000000000000e+00 0.0000000000000000e+00 
0.0000000000000000e+00 0.0000000000000000e+00 0.0000000000000000e+00 
0.0000000000000000e+00 0.0000000000000000e+00 0.0000000000000000e+00 
0.0000000000000000e+00 0.0000000000000000e+00 0.0000000000000000e+00 
0.0000000000000000e+00 0.0000000000000000e+00 0.0000000000000000e+00 
0.0000000000000000e+00 0.0000000000000000e+00 0.0000000000000000e+00 
0.0000000000000000e+00 0.0000000000000000e+00 0.0000000000000000e+00 
0.0000000000000000e+00 0.0000000000000000e+00 0.0000000000000000e+00 

VECTORS Forces0 double
4.0760702660991557e+00 1.7998324568801890e-18 -1.9359619564906483e-01 
4.0435059304741348e+00 -2.3470522389377421e-20 -4.6300200037681766e-01 
3.9790936718663303e+00 1.7768345286243188e-18 -7.3416524203904843e-01 
3.8740762504744835e+00 1.7618477673307209e-18 -9.5972701873098187e-01 
3.7380832497239038e+00 -1.7766842458662290e-18 -1.1362071481359355e+00 
3.5857091195988087e+00 -1.7610868780979214e-18 -1.2666110216454494e+00 
3.4233255901112711e+00 -9.6801866324198709e-18 -1.3641585200912225e+00 
3.2505986465386392e+00 -3.1725728056602884e-22 -1.4360733904637373e+00 
3.0725569342700241e+00 1.7018559655932878e-18 -1.4776876956443004e+00 
2.9022733053195067e+00 -1.6985779943421390e-20 -1.4825029895869453e+00 
2.7508931495964664e+00 3.2954406202956228e-18 -1.4517947076410549e+00 
2.6116823448272855e+00 9.6096286489464122e-18 -1.3922928168322646e+00 
2.4645589468573799e+00 1.5882826253289674e-18 -1.3116943827482392e+00 
2.2819876498234852e+00 -1.2930498761150034e-21 -1.2092640724387798e+00 
2.0153528705514194e+00 1.8119980135795872e-21 -1.0687950622150300e+00 
-9.1017829084784729e-02 9.4999606287001760e-19 -1.7253371044736251e-01 
-1.8761786949744097e-01 -8.6612125179644292e-19 -3.5042919005965800e-01 
-2.7560122546494570e-01 8.0164716811298859e-19 -5.1286892272540319e-01 
-1.6855744816745337e+00 1.4537030221642688e-18 7.9078262593952467e-02 
-1.6873724294087102e+00 -2.9387358770557188e-39 1.9390585417640355e-01 
-1.6880619498239222e+00 -1.4827338419320987e-18 3.1309185004982254e-01 
-1.6851744709402450e+00 5.4005979659653242e-22 4.1911524101713582e-01 
-1.6780828764314228e+00 1.5156974373730933e-18 5.1240758095577943e-01 
-1.6650077893289361e+00 -4.9440633327855305e-18 5.9106214070092289e-01 
-1.6445203508930308e+00 1.5411564090109437e-18 6.5856792523144869e-01 
-1.6181711485022865e+00 0.0000000000000000e+00 7.1918054817794563e-01 
-1.5897986400134125e+00 3.7615819226313200e-37 7.6992137498626190e-01 
-1.5608566511716804e+00 3.2047495375706289e-18 8.0320235983629151e-01 
-1.5287833526808698e+00 4.7219436381224669e-18 8.1343035157612020e-01 
-1.4925142767022379e+00 -1.6562552929004264e-18 8.0299019253389659e-01 
-1.4518673318831348e+00 -2.3509887016445750e-38 7.8077020303571587e-01 
-1.4084906942745272e+00 -1.7649811228329879e-18 7.5556564658473468e-01 
-1.3689640802897443e+00 1.6568849263669352e-20 7.3613405707714386e-01 

