# vtk DataFile Version 2.0

ASCII

DATASET UNSTRUCTURED_GRID

POINTS 68 double 

-5.0000000000000003e-02  2.9999999999999999e-01  0.0000000000000000e+00
-5.0000000000000003e-02  2.9999999999999999e-01  6.6666666669999999e-02
-5.0000000000000003e-02  0.0000000000000000e+00  6.6666666669999999e-02
-5.0000000000000003e-02  0.0000000000000000e+00  0.0000000000000000e+00
-5.0000000000000003e-02  2.9999999999999999e-01  1.3333333330000000e-01
-5.0000000000000003e-02  0.0000000000000000e+00  1.3333333330000000e-01
-5.0000000000000003e-02  2.9999999999999999e-01  2.0000000000000001e-01
-5.0000000000000003e-02  0.0000000000000000e+00  2.0000000000000001e-01
-5.0000000000000003e-02  2.9999999999999999e-01  2.6666666670000000e-01
-5.0000000000000003e-02  0.0000000000000000e+00  2.6666666670000000e-01
-5.0000000000000003e-02  2.9999999999999999e-01  3.3333333329999998e-01
-5.0000000000000003e-02  0.0000000000000000e+00  3.3333333329999998e-01
-5.0000000000000003e-02  2.9999999999999999e-01  4.0000000000000002e-01
-5.0000000000000003e-02  0.0000000000000000e+00  4.0000000000000002e-01
-5.0000000000000003e-02  2.9999999999999999e-01  4.6666666670000001e-01
-5.0000000000000003e-02  0.0000000000000000e+00  4.6666666670000001e-01
-5.0000000000000003e-02  2.9999999999999999e-01  5.3333333329999999e-01
-5.0000000000000003e-02  0.0000000000000000e+00  5.3333333329999999e-01
-5.0000000000000003e-02  2.9999999999999999e-01  5.9999999999999998e-01
-5.0000000000000003e-02  0.0000000000000000e+00  5.9999999999999998e-01
-5.0000000000000003e-02  2.9999999999999999e-01  6.6666666669999997e-01
-5.0000000000000003e-02  0.0000000000000000e+00  6.6666666669999997e-01
-5.0000000000000003e-02  2.9999999999999999e-01  7.3333333329999995e-01
-5.0000000000000003e-02  0.0000000000000000e+00  7.3333333329999995e-01
-5.0000000000000003e-02  2.9999999999999999e-01  8.0000000000000004e-01
-5.0000000000000003e-02  0.0000000000000000e+00  8.0000000000000004e-01
-5.0000000000000003e-02  2.9999999999999999e-01  8.6666666670000003e-01
-5.0000000000000003e-02  0.0000000000000000e+00  8.6666666670000003e-01
-5.0000000000000003e-02  2.9999999999999999e-01  9.3333333330000001e-01
-5.0000000000000003e-02  0.0000000000000000e+00  9.3333333330000001e-01
-5.0000000000000003e-02  2.9999999999999999e-01  1.0000000000000000e+00
-5.0000000000000003e-02  0.0000000000000000e+00  1.0000000000000000e+00
-1.6666666670000000e-02  2.9999999999999999e-01  1.0000000000000000e+00
-1.6666666670000000e-02  0.0000000000000000e+00  1.0000000000000000e+00
1.6666666670000000e-02  2.9999999999999999e-01  1.0000000000000000e+00
1.6666666670000000e-02  0.0000000000000000e+00  1.0000000000000000e+00
5.0000000000000003e-02  2.9999999999999999e-01  1.0000000000000000e+00
5.0000000000000003e-02  0.0000000000000000e+00  1.0000000000000000e+00
5.0000000000000003e-02  2.9999999999999999e-01  0.0000000000000000e+00
5.0000000000000003e-02  0.0000000000000000e+00  0.0000000000000000e+00
5.0000000000000003e-02  0.0000000000000000e+00  6.6666666669999999e-02
5.0000000000000003e-02  2.9999999999999999e-01  6.6666666669999999e-02
5.0000000000000003e-02  0.0000000000000000e+00  1.3333333330000000e-01
5.0000000000000003e-02  2.9999999999999999e-01  1.3333333330000000e-01
5.0000000000000003e-02  0.0000000000000000e+00  2.0000000000000001e-01
5.0000000000000003e-02  2.9999999999999999e-01  2.0000000000000001e-01
5.0000000000000003e-02  0.0000000000000000e+00  2.6666666670000000e-01
5.0000000000000003e-02  2.9999999999999999e-01  2.6666666670000000e-01
5.0000000000000003e-02  0.0000000000000000e+00  3.3333333329999998e-01
5.0000000000000003e-02  2.9999999999999999e-01  3.3333333329999998e-01
5.0000000000000003e-02  0.0000000000000000e+00  4.0000000000000002e-01
5.0000000000000003e-02  2.9999999999999999e-01  4.0000000000000002e-01
5.0000000000000003e-02  0.0000000000000000e+00  4.6666666670000001e-01
5.0000000000000003e-02  2.9999999999999999e-01  4.6666666670000001e-01
5.0000000000000003e-02  0.0000000000000000e+00  5.3333333329999999e-01
5.0000000000000003e-02  2.9999999999999999e-01  5.3333333329999999e-01
5.0000000000000003e-02  0.0000000000000000e+00  5.9999999999999998e-01
5.0000000000000003e-02  2.9999999999999999e-01  5.9999999999999998e-01
5.0000000000000003e-02  0.0000000000000000e+00  6.6666666669999997e-01
5.0000000000000003e-02  2.9999999999999999e-01  6.6666666669999997e-01
5.0000000000000003e-02  0.0000000000000000e+00  7.3333333329999995e-01
5.0000000000000003e-02  2.9999999999999999e-01  7.3333333329999995e-01
5.0000000000000003e-02  0.0000000000000000e+00  8.0000000000000004e-01
5.0000000000000003e-02  2.9999999999999999e-01  8.0000000000000004e-01
5.0000000000000003e-02  0.0000000000000000e+00  8.6666666670000003e-01
5.0000000000000003e-02  2.9999999999999999e-01  8.6666666670000003e-01
5.0000000000000003e-02  0.0000000000000000e+00  9.3333333330000001e-01
5.0000000000000003e-02  2.9999999999999999e-01  9.3333333330000001e-01

CELLS 0 0


CELL_TYPES 0


POINT_DATA 68

VECTORS VertexNormals double

0.0000000000000000e+00 0.0000000000000000e+00 0.0000000000000000e+00 
0.0000000000000000e+00 0.0000000000000000e+00 0.0000000000000000e+00 
0.0000000000000000e+00 0.0000000000000000e+00 0.0000000000000000e+00 
0.0000000000000000e+00 0.0000000000000000e+00 0.0000000000000000e+00 
0.0000000000000000e+00 0.0000000000000000e+00 0.0000000000000000e+00 
0.0000000000000000e+00 0.0000000000000000e+00 0.0000000000000000e+00 
0.0000000000000000e+00 0.0000000000000000e+00 0.0000000000000000e+00 
0.0000000000000000e+00 0.0000000000000000e+00 0.0000000000000000e+00 
0.0000000000000000e+00 0.0000000000000000e+00 0.0000000000000000e+00 
0.0000000000000000e+00 0.0000000000000000e+00 0.0000000000000000e+00 
0.0000000000000000e+00 0.0000000000000000e+00 0.0000000000000000e+00 
0.0000000000000000e+00 0.0000000000000000e+00 0.0000000000000000e+00 
0.0000000000000000e+00 0.0000000000000000e+00 0.0000000000000000e+00 
0.0000000000000000e+00 0.0000000000000000e+00 0.0000000000000000e+00 
0.0000000000000000e+00 0.0000000000000000e+00 0.0000000000000000e+00 
0.0000000000000000e+00 0.0000000000000000e+00 0.0000000000000000e+00 
0.0000000000000000e+00 0.0000000000000000e+00 0.0000000000000000e+00 
0.0000000000000000e+00 0.0000000000000000e+00 0.0000000000000000e+00 
0.0000000000000000e+00 0.0000000000000000e+00 0.0000000000000000e+00 
0.0000000000000000e+00 0.0000000000000000e+00 0.0000000000000000e+00 
0.0000000000000000e+00 0.0000000000000000e+00 0.0000000000000000e+00 
0.0000000000000000e+00 0.0000000000000000e+00 0.0000000000000000e+00 
0.0000000000000000e+00 0.0000000000000000e+00 0.0000000000000000e+00 
0.0000000000000000e+00 0.0000000000000000e+00 0.0000000000000000e+00 
0.0000000000000000e+00 0.0000000000000000e+00 0.0000000000000000e+00 
0.0000000000000000e+00 0.0000000000000000e+00 0.0000000000000000e+00 
0.0000000000000000e+00 0.0000000000000000e+00 0.0000000000000000e+00 
0.0000000000000000e+00 0.0000000000000000e+00 0.0000000000000000e+00 
0.0000000000000000e+00 0.0000000000000000e+00 0.0000000000000000e+00 
0.0000000000000000e+00 0.0000000000000000e+00 0.0000000000000000e+00 
0.0000000000000000e+00 0.0000000000000000e+00 0.0000000000000000e+00 
0.0000000000000000e+00 0.0000000000000000e+00 0.0000000000000000e+00 
0.0000000000000000e+00 0.0000000000000000e+00 0.0000000000000000e+00 
0.0000000000000000e+00 0.0000000000000000e+00 0.0000000000000000e+00 
0.0000000000000000e+00 0.0000000000000000e+00 0.0000000000000000e+00 
0.0000000000000000e+00 0.0000000000000000e+00 0.0000000000000000e+00 
0.0000000000000000e+00 0.0000000000000000e+00 0.0000000000000000e+00 
0.0000000000000000e+00 0.0000000000000000e+00 0.0000000000000000e+00 
0.0000000000000000e+00 0.0000000000000000e+00 0.0000000000000000e+00 
0.0000000000000000e+00 0.0000000000000000e+00 0.0000000000000000e+00 
0.0000000000000000e+00 0.0000000000000000e+00 0.0000000000000000e+00 
0.0000000000000000e+00 0.0000000000000000e+00 0.0000000000000000e+00 
0.0000000000000000e+00 0.0000000000000000e+00 0.0000000000000000e+00 
0.0000000000000000e+00 0.0000000000000000e+00 0.0000000000000000e+00 
0.0000000000000000e+00 0.0000000000000000e+00 0.0000000000000000e+00 
0.0000000000000000e+00 0.0000000000000000e+00 0.0000000000000000e+00 
0.0000000000000000e+00 0.0000000000000000e+00 0.0000000000000000e+00 
0.0000000000000000e+00 0.0000000000000000e+00 0.0000000000000000e+00 
0.0000000000000000e+00 0.0000000000000000e+00 0.0000000000000000e+00 
0.0000000000000000e+00 0.0000000000000000e+00 0.0000000000000000e+00 
0.0000000000000000e+00 0.0000000000000000e+00 0.0000000000000000e+00 
0.0000000000000000e+00 0.0000000000000000e+00 0.0000000000000000e+00 
0.0000000000000000e+00 0.0000000000000000e+00 0.0000000000000000e+00 
0.0000000000000000e+00 0.0000000000000000e+00 0.0000000000000000e+00 
0.0000000000000000e+00 0.0000000000000000e+00 0.0000000000000000e+00 
0.0000000000000000e+00 0.0000000000000000e+00 0.0000000000000000e+00 
0.0000000000000000e+00 0.0000000000000000e+00 0.0000000000000000e+00 
0.0000000000000000e+00 0.0000000000000000e+00 0.0000000000000000e+00 
0.0000000000000000e+00 0.0000000000000000e+00 0.0000000000000000e+00 
0.0000000000000000e+00 0.0000000000000000e+00 0.0000000000000000e+00 
0.0000000000000000e+00 0.0000000000000000e+00 0.0000000000000000e+00 
0.0000000000000000e+00 0.0000000000000000e+00 0.0000000000000000e+00 
0.0000000000000000e+00 0.0000000000000000e+00 0.0000000000000000e+00 
0.0000000000000000e+00 0.0000000000000000e+00 0.0000000000000000e+00 
0.0000000000000000e+00 0.0000000000000000e+00 0.0000000000000000e+00 
0.0000000000000000e+00 0.0000000000000000e+00 0.0000000000000000e+00 
0.0000000000000000e+00 0.0000000000000000e+00 0.0000000000000000e+00 
0.0000000000000000e+00 0.0000000000000000e+00 0.0000000000000000e+00 

VECTORS Displacements0 double
0.0000000000000000e+00 0.0000000000000000e+00 0.0000000000000000e+00 
2.3556794627573700e-03 0.0000000000000000e+00 2.4805908607632510e-03 
2.3556795074366824e-03 0.0000000000000000e+00 2.4805908154156764e-03 
0.0000000000000000e+00 0.0000000000000000e+00 0.0000000000000000e+00 
7.3161138218690719e-03 0.0000000000000000e+00 4.4669329792637966e-03 
7.3161138120316407e-03 0.0000000000000000e+00 4.4669329064422770e-03 
1.4777457426745712e-02 0.0000000000000000e+00 5.8879094170329761e-03 
1.4777457310707558e-02 0.0000000000000000e+00 5.8879093855807290e-03 
2.4199679829717397e-02 0.0000000000000000e+00 6.7398873608317620e-03 
2.4199679725159708e-02 0.0000000000000000e+00 6.7398873674158425e-03 
3.5163168455764907e-02 0.0000000000000000e+00 7.0551111876380364e-03 
3.5163168480983956e-02 0.0000000000000000e+00 7.0551111783377779e-03 
4.7240866069821350e-02 0.0000000000000000e+00 6.8545116234271153e-03 
4.7240866196174458e-02 0.0000000000000000e+00 6.8545115701634648e-03 
5.9951131932277468e-02 0.0000000000000000e+00 6.1972645156099836e-03 
5.9951132036788854e-02 0.0000000000000000e+00 6.1972644524277828e-03 
7.2877717357476599e-02 0.0000000000000000e+00 5.2282346666409777e-03 
7.2877717382022103e-02 0.0000000000000000e+00 5.2282346396741010e-03 
8.5735896266191505e-02 0.0000000000000000e+00 4.0857201744804875e-03 
8.5735896251334154e-02 0.0000000000000000e+00 4.0857201867895510e-03 
9.8370796822708384e-02 0.0000000000000000e+00 2.9097449264017718e-03 
9.8370796814851086e-02 0.0000000000000000e+00 2.9097449443275802e-03 
1.1084946239901929e-01 0.0000000000000000e+00 1.7761786813575223e-03 
1.1084946238962035e-01 0.0000000000000000e+00 1.7761786770314255e-03 
1.2327625627131976e-01 0.0000000000000000e+00 6.1097262752227675e-04 
1.2327625623325884e-01 0.0000000000000000e+00 6.1097260476869995e-04 
1.3549349608295574e-01 0.0000000000000000e+00 -6.4797136564320561e-04 
1.3549349604346919e-01 0.0000000000000000e+00 -6.4797137987656836e-04 
1.4728787719736386e-01 0.0000000000000000e+00 -1.8660821814622235e-03 
1.4728787722435913e-01 0.0000000000000000e+00 -1.8660821761533174e-03 
1.5890136427674431e-01 0.0000000000000000e+00 -2.9490050134259108e-03 
1.5890136438170918e-01 0.0000000000000000e+00 -2.9490049979904991e-03 
1.5841540113452898e-01 0.0000000000000000e+00 -8.8094341427907390e-03 
1.5841540121847930e-01 0.0000000000000000e+00 -8.8094341497895173e-03 
1.5791008904527395e-01 0.0000000000000000e+00 -1.4559652052644737e-02 
1.5791008909904675e-01 0.0000000000000000e+00 -1.4559652068494799e-02 
1.5735485274385325e-01 0.0000000000000000e+00 -2.0424847223989070e-02 
1.5735485276672967e-01 0.0000000000000000e+00 -2.0424847237849989e-02 
0.0000000000000000e+00 0.0000000000000000e+00 0.0000000000000000e+00 
0.0000000000000000e+00 0.0000000000000000e+00 0.0000000000000000e+00 
2.0856334571739427e-03 0.0000000000000000e+00 -2.3058129558051494e-03 
2.0856335633647194e-03 0.0000000000000000e+00 -2.3058128950101961e-03 
6.7798288448428293e-03 0.0000000000000000e+00 -4.3541968293892702e-03 
6.7798288473007277e-03 0.0000000000000000e+00 -4.3541968260706826e-03 
1.3897294993449234e-02 0.0000000000000000e+00 -6.2347273819884086e-03 
1.3897295019626811e-02 0.0000000000000000e+00 -6.2347273943941118e-03 
2.2964089039060595e-02 0.0000000000000000e+00 -8.0168363635983089e-03 
2.2964089063189898e-02 0.0000000000000000e+00 -8.0168363661509891e-03 
3.3608973651373941e-02 0.0000000000000000e+00 -9.7283765150007612e-03 
3.3608973611389273e-02 0.0000000000000000e+00 -9.7283765135487490e-03 
4.5446165888151965e-02 0.0000000000000000e+00 -1.1321897142666442e-02 
4.5446165817027803e-02 0.0000000000000000e+00 -1.1321897150005082e-02 
5.8020582588439354e-02 0.0000000000000000e+00 -1.2720576079086207e-02 
5.8020582577366461e-02 0.0000000000000000e+00 -1.2720576082529963e-02 
7.0908360032214068e-02 0.0000000000000000e+00 -1.3923519391572853e-02 
7.0908360098731638e-02 0.0000000000000000e+00 -1.3923519365802536e-02 
8.3796099119499007e-02 0.0000000000000000e+00 -1.4959608445058351e-02 
8.3796099192403287e-02 0.0000000000000000e+00 -1.4959608391614910e-02 
9.6486276331952364e-02 0.0000000000000000e+00 -1.5908456710590515e-02 
9.6486276357505799e-02 0.0000000000000000e+00 -1.5908456664616297e-02 
1.0901229572155684e-01 0.0000000000000000e+00 -1.6877221474360556e-02 
1.0901229572564178e-01 0.0000000000000000e+00 -1.6877221469908853e-02 
1.2149423695063145e-01 0.0000000000000000e+00 -1.7846027852389819e-02 
1.2149423699348411e-01 0.0000000000000000e+00 -1.7846027894698632e-02 
1.3380410460832842e-01 0.0000000000000000e+00 -1.8705037121390339e-02 
1.3380410469221340e-01 0.0000000000000000e+00 -1.8705037174603149e-02 
1.4569551116240489e-01 0.0000000000000000e+00 -1.9507956831532051e-02 
1.4569551121344562e-01 0.0000000000000000e+00 -1.9507956855465351e-02 

