# vtk DataFile Version 2.0

ASCII

DATASET UNSTRUCTURED_GRID

POINTS 33 float 

-5.0000000000000003e-02  1.4999999999999997e-01  3.3333333335000000e-02
-5.0000000000000003e-02  1.4999999999999999e-01  9.9999999985000018e-02
-5.0000000000000003e-02  1.4999999999999997e-01  1.6666666665000002e-01
-5.0000000000000003e-02  1.4999999999999999e-01  2.3333333334999998e-01
-5.0000000000000003e-02  1.4999999999999997e-01  2.9999999999999993e-01
-5.0000000000000003e-02  1.4999999999999997e-01  3.6666666665000003e-01
-5.0000000000000003e-02  1.4999999999999999e-01  4.3333333335000002e-01
-5.0000000000000003e-02  1.4999999999999997e-01  5.0000000000000000e-01
-5.0000000000000003e-02  1.4999999999999999e-01  5.6666666664999987e-01
-5.0000000000000003e-02  1.4999999999999999e-01  6.3333333334999986e-01
-5.0000000000000003e-02  1.4999999999999997e-01  6.9999999999999984e-01
-5.0000000000000003e-02  1.4999999999999999e-01  7.6666666664999994e-01
-4.9999999999999996e-02  1.4999999999999999e-01  8.3333333334999982e-01
-5.0000000000000003e-02  1.4999999999999997e-01  8.9999999999999991e-01
-5.0000000000000003e-02  1.4999999999999999e-01  9.6666666664999990e-01
-3.3333333335000000e-02  1.4999999999999997e-01  9.9999999999999978e-01
0.0000000000000000e+00  1.4999999999999997e-01  1.0000000000000000e+00
3.3333333335000007e-02  1.4999999999999999e-01  1.0000000000000000e+00
5.0000000000000003e-02  1.4999999999999997e-01  3.3333333335000000e-02
5.0000000000000003e-02  1.4999999999999999e-01  9.9999999985000004e-02
5.0000000000000003e-02  1.4999999999999999e-01  1.6666666664999999e-01
5.0000000000000003e-02  1.5000000000000002e-01  2.3333333334999998e-01
5.0000000000000003e-02  1.4999999999999997e-01  2.9999999999999993e-01
5.0000000000000003e-02  1.4999999999999997e-01  3.6666666665000003e-01
5.0000000000000003e-02  1.5000000000000002e-01  4.3333333334999991e-01
5.0000000000000003e-02  1.4999999999999997e-01  5.0000000000000000e-01
5.0000000000000003e-02  1.5000000000000002e-01  5.6666666664999987e-01
5.0000000000000003e-02  1.5000000000000002e-01  6.3333333334999997e-01
5.0000000000000003e-02  1.4999999999999997e-01  6.9999999999999984e-01
5.0000000000000003e-02  1.4999999999999999e-01  7.6666666664999994e-01
5.0000000000000003e-02  1.5000000000000002e-01  8.3333333334999993e-01
5.0000000000000010e-02  1.4999999999999997e-01  8.9999999999999991e-01
5.0000000000000003e-02  1.5000000000000002e-01  9.6666666664999990e-01

CELLS 0 0


CELL_TYPES 0


POINT_DATA 33

VECTORS VertexNormals float

0.0000000000000000e+00 0.0000000000000000e+00 0.0000000000000000e+00 
0.0000000000000000e+00 0.0000000000000000e+00 0.0000000000000000e+00 
0.0000000000000000e+00 0.0000000000000000e+00 0.0000000000000000e+00 
0.0000000000000000e+00 0.0000000000000000e+00 0.0000000000000000e+00 
0.0000000000000000e+00 0.0000000000000000e+00 0.0000000000000000e+00 
0.0000000000000000e+00 0.0000000000000000e+00 0.0000000000000000e+00 
0.0000000000000000e+00 0.0000000000000000e+00 0.0000000000000000e+00 
0.0000000000000000e+00 0.0000000000000000e+00 0.0000000000000000e+00 
0.0000000000000000e+00 0.0000000000000000e+00 0.0000000000000000e+00 
0.0000000000000000e+00 0.0000000000000000e+00 0.0000000000000000e+00 
0.0000000000000000e+00 0.0000000000000000e+00 0.0000000000000000e+00 
0.0000000000000000e+00 0.0000000000000000e+00 0.0000000000000000e+00 
0.0000000000000000e+00 0.0000000000000000e+00 0.0000000000000000e+00 
0.0000000000000000e+00 0.0000000000000000e+00 0.0000000000000000e+00 
0.0000000000000000e+00 0.0000000000000000e+00 0.0000000000000000e+00 
0.0000000000000000e+00 0.0000000000000000e+00 0.0000000000000000e+00 
0.0000000000000000e+00 0.0000000000000000e+00 0.0000000000000000e+00 
0.0000000000000000e+00 0.0000000000000000e+00 0.0000000000000000e+00 
0.0000000000000000e+00 0.0000000000000000e+00 0.0000000000000000e+00 
0.0000000000000000e+00 0.0000000000000000e+00 0.0000000000000000e+00 
0.0000000000000000e+00 0.0000000000000000e+00 0.0000000000000000e+00 
0.0000000000000000e+00 0.0000000000000000e+00 0.0000000000000000e+00 
0.0000000000000000e+00 0.0000000000000000e+00 0.0000000000000000e+00 
0.0000000000000000e+00 0.0000000000000000e+00 0.0000000000000000e+00 
0.0000000000000000e+00 0.0000000000000000e+00 0.0000000000000000e+00 
0.0000000000000000e+00 0.0000000000000000e+00 0.0000000000000000e+00 
0.0000000000000000e+00 0.0000000000000000e+00 0.0000000000000000e+00 
0.0000000000000000e+00 0.0000000000000000e+00 0.0000000000000000e+00 
0.0000000000000000e+00 0.0000000000000000e+00 0.0000000000000000e+00 
0.0000000000000000e+00 0.0000000000000000e+00 0.0000000000000000e+00 
0.0000000000000000e+00 0.0000000000000000e+00 0.0000000000000000e+00 
0.0000000000000000e+00 0.0000000000000000e+00 0.0000000000000000e+00 
0.0000000000000000e+00 0.0000000000000000e+00 0.0000000000000000e+00 

VECTORS Forces0 float
2.4720200947919184e+00 2.0687882049713101e-19 -3.0976060725067173e-02 
2.4476883116623416e+00 4.4978722400738172e-22 -2.3137508985640494e-02 
2.4314014366968557e+00 -2.3347361278656429e-23 -5.0381137014517295e-03 
2.4163797519980936e+00 -2.1554104629032693e-23 2.1134524989629908e-03 
2.3934859273294391e+00 1.9030910595484958e-23 3.1211521174665585e-03 
2.3620905411798128e+00 -1.6419363795990158e-18 3.2662090195296400e-03 
2.3207835366548419e+00 1.6294542591358254e-18 3.5830221230630384e-03 
2.2660437065953154e+00 1.2254174866909162e-25 4.1616343089731283e-03 
2.1937994877691271e+00 1.6294989452083423e-18 4.9141987904752701e-03 
2.0970720813622381e+00 1.6296470214848278e-18 5.5450317672230253e-03 
1.9638830918987198e+00 -1.6297759558385839e-18 6.1853938673846909e-03 
1.7724813255587921e+00 -9.3582671067867538e-21 6.9000544496729162e-03 
1.4768296479105600e+00 1.6379966753476442e-18 7.6498514432084448e-03 
9.6530229985733085e-01 -8.6648355386367558e-25 8.9599716216249379e-03 
-1.1594752166735589e-01 1.6281138225293949e-18 9.1549173965102867e-03 
-6.2343927928763792e-03 -3.5377175986917335e-23 4.2494986226331353e+00 
-4.5110566417825120e-03 1.7882078465267419e-23 4.1859635975426590e+00 
-9.6109257285914747e-04 8.6028531511266054e-23 3.4168162396615385e+00 
1.5374946026534533e+00 -1.6156315783219792e-18 -1.9232067039503298e-02 
1.5656225191010815e+00 1.6368534149292189e-18 -1.5024853299467974e-02 
1.6013934882476932e+00 1.6398807857675027e-18 -3.9376921978184669e-03 
1.6539241658373043e+00 5.6132276322167984e-23 4.2372329281245032e-04 
1.7304464551563024e+00 1.6329693538700427e-18 1.0691067680992249e-03 
1.8334151369122942e+00 1.6226102230299879e-18 1.2231585470762923e-03 
1.9666471065734967e+00 -4.0167331240745369e-23 1.3133613658473564e-03 
2.1297147501363187e+00 1.1229698492945529e-20 2.1183990252918827e-03 
2.3496316489898161e+00 -6.6299340196110113e-25 3.4113529370250585e-03 
2.6596334226362455e+00 1.6323195488612432e-18 4.5696547629681854e-03 
3.1099612358454585e+00 -1.6161185402186144e-18 6.4924900320557123e-03 
3.7300702541647324e+00 3.4232628417815138e-23 8.9410506427480552e-03 
4.3990970034884658e+00 -1.6098728041264367e-18 1.0244842072842588e-02 
4.8968777702981852e+00 -5.1693315198764877e-20 1.2908392706388841e-02 
5.2345352989966001e+00 -1.2115661896802824e-22 1.4347551733170563e-02 

