# vtk DataFile Version 2.0

ASCII

DATASET UNSTRUCTURED_GRID

POINTS 33 float 

-5.0000000000000003e-02  1.4999999999999997e-01  3.3333333335000000e-02
-5.0000000000000003e-02  1.4999999999999999e-01  9.9999999985000018e-02
-5.0000000000000003e-02  1.4999999999999997e-01  1.6666666665000002e-01
-5.0000000000000003e-02  1.4999999999999999e-01  2.3333333334999998e-01
-5.0000000000000003e-02  1.4999999999999997e-01  2.9999999999999993e-01
-5.0000000000000003e-02  1.4999999999999997e-01  3.6666666665000003e-01
-5.0000000000000003e-02  1.4999999999999999e-01  4.3333333335000002e-01
-5.0000000000000003e-02  1.4999999999999997e-01  5.0000000000000000e-01
-5.0000000000000003e-02  1.4999999999999999e-01  5.6666666664999987e-01
-5.0000000000000003e-02  1.4999999999999999e-01  6.3333333334999986e-01
-5.0000000000000003e-02  1.4999999999999997e-01  6.9999999999999984e-01
-5.0000000000000003e-02  1.4999999999999999e-01  7.6666666664999994e-01
-4.9999999999999996e-02  1.4999999999999999e-01  8.3333333334999982e-01
-5.0000000000000003e-02  1.4999999999999997e-01  8.9999999999999991e-01
-5.0000000000000003e-02  1.4999999999999999e-01  9.6666666664999990e-01
-3.3333333335000000e-02  1.4999999999999997e-01  9.9999999999999978e-01
0.0000000000000000e+00  1.4999999999999997e-01  1.0000000000000000e+00
3.3333333335000007e-02  1.4999999999999999e-01  1.0000000000000000e+00
5.0000000000000003e-02  1.4999999999999997e-01  3.3333333335000000e-02
5.0000000000000003e-02  1.4999999999999999e-01  9.9999999985000004e-02
5.0000000000000003e-02  1.4999999999999999e-01  1.6666666664999999e-01
5.0000000000000003e-02  1.5000000000000002e-01  2.3333333334999998e-01
5.0000000000000003e-02  1.4999999999999997e-01  2.9999999999999993e-01
5.0000000000000003e-02  1.4999999999999997e-01  3.6666666665000003e-01
5.0000000000000003e-02  1.5000000000000002e-01  4.3333333334999991e-01
5.0000000000000003e-02  1.4999999999999997e-01  5.0000000000000000e-01
5.0000000000000003e-02  1.5000000000000002e-01  5.6666666664999987e-01
5.0000000000000003e-02  1.5000000000000002e-01  6.3333333334999997e-01
5.0000000000000003e-02  1.4999999999999997e-01  6.9999999999999984e-01
5.0000000000000003e-02  1.4999999999999999e-01  7.6666666664999994e-01
5.0000000000000003e-02  1.5000000000000002e-01  8.3333333334999993e-01
5.0000000000000010e-02  1.4999999999999997e-01  8.9999999999999991e-01
5.0000000000000003e-02  1.5000000000000002e-01  9.6666666664999990e-01

CELLS 0 0


CELL_TYPES 0


POINT_DATA 33

VECTORS VertexNormals float

0.0000000000000000e+00 0.0000000000000000e+00 0.0000000000000000e+00 
0.0000000000000000e+00 0.0000000000000000e+00 0.0000000000000000e+00 
0.0000000000000000e+00 0.0000000000000000e+00 0.0000000000000000e+00 
0.0000000000000000e+00 0.0000000000000000e+00 0.0000000000000000e+00 
0.0000000000000000e+00 0.0000000000000000e+00 0.0000000000000000e+00 
0.0000000000000000e+00 0.0000000000000000e+00 0.0000000000000000e+00 
0.0000000000000000e+00 0.0000000000000000e+00 0.0000000000000000e+00 
0.0000000000000000e+00 0.0000000000000000e+00 0.0000000000000000e+00 
0.0000000000000000e+00 0.0000000000000000e+00 0.0000000000000000e+00 
0.0000000000000000e+00 0.0000000000000000e+00 0.0000000000000000e+00 
0.0000000000000000e+00 0.0000000000000000e+00 0.0000000000000000e+00 
0.0000000000000000e+00 0.0000000000000000e+00 0.0000000000000000e+00 
0.0000000000000000e+00 0.0000000000000000e+00 0.0000000000000000e+00 
0.0000000000000000e+00 0.0000000000000000e+00 0.0000000000000000e+00 
0.0000000000000000e+00 0.0000000000000000e+00 0.0000000000000000e+00 
0.0000000000000000e+00 0.0000000000000000e+00 0.0000000000000000e+00 
0.0000000000000000e+00 0.0000000000000000e+00 0.0000000000000000e+00 
0.0000000000000000e+00 0.0000000000000000e+00 0.0000000000000000e+00 
0.0000000000000000e+00 0.0000000000000000e+00 0.0000000000000000e+00 
0.0000000000000000e+00 0.0000000000000000e+00 0.0000000000000000e+00 
0.0000000000000000e+00 0.0000000000000000e+00 0.0000000000000000e+00 
0.0000000000000000e+00 0.0000000000000000e+00 0.0000000000000000e+00 
0.0000000000000000e+00 0.0000000000000000e+00 0.0000000000000000e+00 
0.0000000000000000e+00 0.0000000000000000e+00 0.0000000000000000e+00 
0.0000000000000000e+00 0.0000000000000000e+00 0.0000000000000000e+00 
0.0000000000000000e+00 0.0000000000000000e+00 0.0000000000000000e+00 
0.0000000000000000e+00 0.0000000000000000e+00 0.0000000000000000e+00 
0.0000000000000000e+00 0.0000000000000000e+00 0.0000000000000000e+00 
0.0000000000000000e+00 0.0000000000000000e+00 0.0000000000000000e+00 
0.0000000000000000e+00 0.0000000000000000e+00 0.0000000000000000e+00 
0.0000000000000000e+00 0.0000000000000000e+00 0.0000000000000000e+00 
0.0000000000000000e+00 0.0000000000000000e+00 0.0000000000000000e+00 
0.0000000000000000e+00 0.0000000000000000e+00 0.0000000000000000e+00 

VECTORS Forces0 float
3.5574263083121962e+00 -1.1754943508222875e-38 -1.2817545817556802e-01 
3.5437997157774137e+00 9.6087072610304248e-21 -3.1050536485060926e-01 
3.5130949995240632e+00 4.6145053752465281e-18 -5.0077620028611214e-01 
3.4498255571192171e+00 -2.8294569179969918e-18 -6.6672840915989273e-01 
3.3535830115286656e+00 7.2678582827924259e-18 -8.0616739501706558e-01 
3.2290866426039693e+00 -7.2458990777844314e-22 -9.1915239053404985e-01 
3.0828937743253793e+00 -6.8191766216743896e-18 -1.0048781135251059e+00 
2.9263155904598244e+00 -1.8807909613156600e-37 -1.0620935413386876e+00 
2.7654418749937033e+00 1.7289558860391491e-20 -1.0972260889613688e+00 
2.5968483314402269e+00 1.7054273185469240e-18 -1.1149286105997300e+00 
2.4211635967563212e+00 -8.0580037317553675e-22 -1.1071929945156249e+00 
2.2452542524697279e+00 -5.0255225765447865e-18 -1.0648480743482005e+00 
2.0675261838028773e+00 1.6125121249362426e-18 -9.8905012636073497e-01 
1.8650198240897813e+00 1.5767258124571462e-18 -8.8490244032543508e-01 
1.5729702777954295e+00 1.4380623171210872e-18 -7.4261590760322227e-01 
5.8754359191576774e-02 -2.2923084502842808e-21 1.2144158567008635e-01 
-2.9952182603400362e-02 -9.6586464156683446e-20 -6.1419485448316539e-02 
-1.0914632214251324e-01 1.1007224890976476e-22 -2.2597492033494770e-01 
-1.2887287871627902e+00 -5.8774717541114375e-39 4.5594613258718220e-02 
-1.2923693144898418e+00 1.5060953449322973e-18 1.1371567048525789e-01 
-1.2922208630071232e+00 1.5117999468656419e-18 1.8540721582773856e-01 
-1.2866414602797875e+00 1.5225946175875016e-18 2.5011916996484262e-01 
-1.2740550200928231e+00 1.5319951958954562e-18 3.0838344720004823e-01 
-1.2534265888690919e+00 1.5420792248409934e-18 3.5960261849407882e-01 
-1.2254860311450859e+00 1.5518978614062885e-18 4.0277050156151756e-01 
-1.1897162817762204e+00 9.0818667859577232e-21 4.3584389258526901e-01 
-1.1446477743388006e+00 -3.1524495888816384e-18 4.5887421638538756e-01 
-1.0917782547687176e+00 0.0000000000000000e+00 4.7413009288539443e-01 
-1.0354912560831511e+00 -1.5207538391908641e-18 4.7978311649078836e-01 
-9.7861597982897464e-01 1.6459171213229939e-18 4.7107422161856560e-01 
-9.2053706919146483e-01 4.4570412404523700e-18 4.4795084575922339e-01 
-8.6305529349488563e-01 -2.5886346549215366e-18 4.1799044360979098e-01 
-8.1517694178081646e-01 2.0027965277836306e-18 3.9429698459355395e-01 

