# vtk DataFile Version 2.0

ASCII

DATASET UNSTRUCTURED_GRID

POINTS 33 double 

-5.0000000000000003e-02  1.4999999999999997e-01  3.3333333335000000e-02
-5.0000000000000003e-02  1.4999999999999999e-01  9.9999999985000018e-02
-5.0000000000000003e-02  1.4999999999999997e-01  1.6666666665000002e-01
-5.0000000000000003e-02  1.4999999999999999e-01  2.3333333334999998e-01
-5.0000000000000003e-02  1.4999999999999997e-01  2.9999999999999993e-01
-5.0000000000000003e-02  1.4999999999999997e-01  3.6666666665000003e-01
-5.0000000000000003e-02  1.4999999999999999e-01  4.3333333335000002e-01
-5.0000000000000003e-02  1.4999999999999997e-01  5.0000000000000000e-01
-5.0000000000000003e-02  1.4999999999999999e-01  5.6666666664999987e-01
-5.0000000000000003e-02  1.4999999999999999e-01  6.3333333334999986e-01
-5.0000000000000003e-02  1.4999999999999997e-01  6.9999999999999984e-01
-5.0000000000000003e-02  1.4999999999999999e-01  7.6666666664999994e-01
-4.9999999999999996e-02  1.4999999999999999e-01  8.3333333334999982e-01
-5.0000000000000003e-02  1.4999999999999997e-01  8.9999999999999991e-01
-5.0000000000000003e-02  1.4999999999999999e-01  9.6666666664999990e-01
-3.3333333335000000e-02  1.4999999999999997e-01  9.9999999999999978e-01
0.0000000000000000e+00  1.4999999999999997e-01  1.0000000000000000e+00
3.3333333335000007e-02  1.4999999999999999e-01  1.0000000000000000e+00
5.0000000000000003e-02  1.4999999999999997e-01  3.3333333335000000e-02
5.0000000000000003e-02  1.4999999999999999e-01  9.9999999985000004e-02
5.0000000000000003e-02  1.4999999999999999e-01  1.6666666664999999e-01
5.0000000000000003e-02  1.5000000000000002e-01  2.3333333334999998e-01
5.0000000000000003e-02  1.4999999999999997e-01  2.9999999999999993e-01
5.0000000000000003e-02  1.4999999999999997e-01  3.6666666665000003e-01
5.0000000000000003e-02  1.5000000000000002e-01  4.3333333334999991e-01
5.0000000000000003e-02  1.4999999999999997e-01  5.0000000000000000e-01
5.0000000000000003e-02  1.5000000000000002e-01  5.6666666664999987e-01
5.0000000000000003e-02  1.5000000000000002e-01  6.3333333334999997e-01
5.0000000000000003e-02  1.4999999999999997e-01  6.9999999999999984e-01
5.0000000000000003e-02  1.4999999999999999e-01  7.6666666664999994e-01
5.0000000000000003e-02  1.5000000000000002e-01  8.3333333334999993e-01
5.0000000000000010e-02  1.4999999999999997e-01  8.9999999999999991e-01
5.0000000000000003e-02  1.5000000000000002e-01  9.6666666664999990e-01

CELLS 0 0


CELL_TYPES 0


POINT_DATA 33

VECTORS VertexNormals double

0.0000000000000000e+00 0.0000000000000000e+00 0.0000000000000000e+00 
0.0000000000000000e+00 0.0000000000000000e+00 0.0000000000000000e+00 
0.0000000000000000e+00 0.0000000000000000e+00 0.0000000000000000e+00 
0.0000000000000000e+00 0.0000000000000000e+00 0.0000000000000000e+00 
0.0000000000000000e+00 0.0000000000000000e+00 0.0000000000000000e+00 
0.0000000000000000e+00 0.0000000000000000e+00 0.0000000000000000e+00 
0.0000000000000000e+00 0.0000000000000000e+00 0.0000000000000000e+00 
0.0000000000000000e+00 0.0000000000000000e+00 0.0000000000000000e+00 
0.0000000000000000e+00 0.0000000000000000e+00 0.0000000000000000e+00 
0.0000000000000000e+00 0.0000000000000000e+00 0.0000000000000000e+00 
0.0000000000000000e+00 0.0000000000000000e+00 0.0000000000000000e+00 
0.0000000000000000e+00 0.0000000000000000e+00 0.0000000000000000e+00 
0.0000000000000000e+00 0.0000000000000000e+00 0.0000000000000000e+00 
0.0000000000000000e+00 0.0000000000000000e+00 0.0000000000000000e+00 
0.0000000000000000e+00 0.0000000000000000e+00 0.0000000000000000e+00 
0.0000000000000000e+00 0.0000000000000000e+00 0.0000000000000000e+00 
0.0000000000000000e+00 0.0000000000000000e+00 0.0000000000000000e+00 
0.0000000000000000e+00 0.0000000000000000e+00 0.0000000000000000e+00 
0.0000000000000000e+00 0.0000000000000000e+00 0.0000000000000000e+00 
0.0000000000000000e+00 0.0000000000000000e+00 0.0000000000000000e+00 
0.0000000000000000e+00 0.0000000000000000e+00 0.0000000000000000e+00 
0.0000000000000000e+00 0.0000000000000000e+00 0.0000000000000000e+00 
0.0000000000000000e+00 0.0000000000000000e+00 0.0000000000000000e+00 
0.0000000000000000e+00 0.0000000000000000e+00 0.0000000000000000e+00 
0.0000000000000000e+00 0.0000000000000000e+00 0.0000000000000000e+00 
0.0000000000000000e+00 0.0000000000000000e+00 0.0000000000000000e+00 
0.0000000000000000e+00 0.0000000000000000e+00 0.0000000000000000e+00 
0.0000000000000000e+00 0.0000000000000000e+00 0.0000000000000000e+00 
0.0000000000000000e+00 0.0000000000000000e+00 0.0000000000000000e+00 
0.0000000000000000e+00 0.0000000000000000e+00 0.0000000000000000e+00 
0.0000000000000000e+00 0.0000000000000000e+00 0.0000000000000000e+00 
0.0000000000000000e+00 0.0000000000000000e+00 0.0000000000000000e+00 
0.0000000000000000e+00 0.0000000000000000e+00 0.0000000000000000e+00 

VECTORS Forces0 double
2.2475381367657241e+00 4.0012753199485610e-22 -5.8163608311187026e-02 
2.2404898157925768e+00 1.9232774631951742e-24 -1.4503939749522901e-01 
2.2148697956038519e+00 1.4742975785096430e-18 -2.2094554475416539e-01 
2.1782075206417590e+00 3.3111195533581023e-18 -2.5647762536339930e-01 
2.1405969193097891e+00 -1.6287292622504589e-18 -2.5773604296470204e-01 
2.1002686470800551e+00 1.9268960423733829e-22 -2.3839914400541343e-01 
2.0555906198269409e+00 1.5896568442764606e-18 -2.0327052151021671e-01 
2.0066854790102564e+00 5.2919704769669741e-23 -1.5889433381733020e-01 
1.9464629035540668e+00 -2.9256284985664075e-18 -1.1574665805440974e-01 
1.8667132926272536e+00 1.5893472711208364e-18 -7.7600573194573308e-02 
1.7597017392527279e+00 3.4392393311167709e-38 -4.5177549030641528e-02 
1.6114554412358499e+00 1.6025106324878384e-18 -2.1866183597367663e-02 
1.3954680927543901e+00 1.6092630793138181e-18 -8.3022584151424966e-03 
1.0570514960111053e+00 1.6130988489632765e-18 -5.0640466186387904e-04 
4.4297050704282598e-01 1.5878266344155593e-18 4.6589720383810387e-03 
1.4348040425380371e-02 -5.9680446716420328e-20 1.4160978306132930e+00 
5.1668810588599455e-03 2.4034624714092608e-18 1.2229178808540939e+00 
8.0832813649602299e-03 -8.4143500930212238e-19 9.9401654582516730e-01 
1.3616948228847883e+00 -1.5377097213221011e-18 -3.5721836792398654e-02 
1.3602928584384379e+00 -1.5471727460009405e-18 -8.8197030179926944e-02 
1.3732079245726367e+00 -3.8467099552071775e-22 -1.3726640218188232e-01 
1.4039461610975077e+00 -2.4736430527049957e-21 -1.6494847332129717e-01 
1.4491104359286298e+00 1.7373831456103481e-22 -1.7375069122937006e-01 
1.5083677149163335e+00 3.8361377598395083e-19 -1.7014691873092092e-01 
1.5808184027299259e+00 1.6713967326202715e-18 -1.5515850771119746e-01 
1.6570483622749785e+00 2.7811928096701799e-18 -1.3004087476312484e-01 
1.7249189621510286e+00 1.6772320713410887e-18 -1.0160016047633615e-01 
1.7764220970477531e+00 -1.6714974342638519e-18 -7.3363861453790744e-02 
1.8058095141603487e+00 -6.0466017468531208e-19 -4.6711240147331377e-02 
1.8092091067671159e+00 3.0370440022328385e-19 -2.5982835839501246e-02 
1.7889875370647206e+00 1.6511449591745858e-18 -1.4154581972807050e-02 
1.7510229341219072e+00 -1.7209940219209242e-18 -8.3355701366890841e-03 
1.6991476547051918e+00 1.5807267941548539e-18 -8.5521618961835969e-03 

