# vtk DataFile Version 2.0

ASCII

DATASET UNSTRUCTURED_GRID

POINTS 68 float 

-5.0000000000000003e-02  2.9999999999999999e-01  0.0000000000000000e+00
-5.0000000000000003e-02  2.9999999999999999e-01  6.6666666669999999e-02
-5.0000000000000003e-02  0.0000000000000000e+00  6.6666666669999999e-02
-5.0000000000000003e-02  0.0000000000000000e+00  0.0000000000000000e+00
-5.0000000000000003e-02  2.9999999999999999e-01  1.3333333330000000e-01
-5.0000000000000003e-02  0.0000000000000000e+00  1.3333333330000000e-01
-5.0000000000000003e-02  2.9999999999999999e-01  2.0000000000000001e-01
-5.0000000000000003e-02  0.0000000000000000e+00  2.0000000000000001e-01
-5.0000000000000003e-02  2.9999999999999999e-01  2.6666666670000000e-01
-5.0000000000000003e-02  0.0000000000000000e+00  2.6666666670000000e-01
-5.0000000000000003e-02  2.9999999999999999e-01  3.3333333329999998e-01
-5.0000000000000003e-02  0.0000000000000000e+00  3.3333333329999998e-01
-5.0000000000000003e-02  2.9999999999999999e-01  4.0000000000000002e-01
-5.0000000000000003e-02  0.0000000000000000e+00  4.0000000000000002e-01
-5.0000000000000003e-02  2.9999999999999999e-01  4.6666666670000001e-01
-5.0000000000000003e-02  0.0000000000000000e+00  4.6666666670000001e-01
-5.0000000000000003e-02  2.9999999999999999e-01  5.3333333329999999e-01
-5.0000000000000003e-02  0.0000000000000000e+00  5.3333333329999999e-01
-5.0000000000000003e-02  2.9999999999999999e-01  5.9999999999999998e-01
-5.0000000000000003e-02  0.0000000000000000e+00  5.9999999999999998e-01
-5.0000000000000003e-02  2.9999999999999999e-01  6.6666666669999997e-01
-5.0000000000000003e-02  0.0000000000000000e+00  6.6666666669999997e-01
-5.0000000000000003e-02  2.9999999999999999e-01  7.3333333329999995e-01
-5.0000000000000003e-02  0.0000000000000000e+00  7.3333333329999995e-01
-5.0000000000000003e-02  2.9999999999999999e-01  8.0000000000000004e-01
-5.0000000000000003e-02  0.0000000000000000e+00  8.0000000000000004e-01
-5.0000000000000003e-02  2.9999999999999999e-01  8.6666666670000003e-01
-5.0000000000000003e-02  0.0000000000000000e+00  8.6666666670000003e-01
-5.0000000000000003e-02  2.9999999999999999e-01  9.3333333330000001e-01
-5.0000000000000003e-02  0.0000000000000000e+00  9.3333333330000001e-01
-5.0000000000000003e-02  2.9999999999999999e-01  1.0000000000000000e+00
-5.0000000000000003e-02  0.0000000000000000e+00  1.0000000000000000e+00
-1.6666666670000000e-02  2.9999999999999999e-01  1.0000000000000000e+00
-1.6666666670000000e-02  0.0000000000000000e+00  1.0000000000000000e+00
1.6666666670000000e-02  2.9999999999999999e-01  1.0000000000000000e+00
1.6666666670000000e-02  0.0000000000000000e+00  1.0000000000000000e+00
5.0000000000000003e-02  2.9999999999999999e-01  1.0000000000000000e+00
5.0000000000000003e-02  0.0000000000000000e+00  1.0000000000000000e+00
5.0000000000000003e-02  2.9999999999999999e-01  0.0000000000000000e+00
5.0000000000000003e-02  0.0000000000000000e+00  0.0000000000000000e+00
5.0000000000000003e-02  0.0000000000000000e+00  6.6666666669999999e-02
5.0000000000000003e-02  2.9999999999999999e-01  6.6666666669999999e-02
5.0000000000000003e-02  0.0000000000000000e+00  1.3333333330000000e-01
5.0000000000000003e-02  2.9999999999999999e-01  1.3333333330000000e-01
5.0000000000000003e-02  0.0000000000000000e+00  2.0000000000000001e-01
5.0000000000000003e-02  2.9999999999999999e-01  2.0000000000000001e-01
5.0000000000000003e-02  0.0000000000000000e+00  2.6666666670000000e-01
5.0000000000000003e-02  2.9999999999999999e-01  2.6666666670000000e-01
5.0000000000000003e-02  0.0000000000000000e+00  3.3333333329999998e-01
5.0000000000000003e-02  2.9999999999999999e-01  3.3333333329999998e-01
5.0000000000000003e-02  0.0000000000000000e+00  4.0000000000000002e-01
5.0000000000000003e-02  2.9999999999999999e-01  4.0000000000000002e-01
5.0000000000000003e-02  0.0000000000000000e+00  4.6666666670000001e-01
5.0000000000000003e-02  2.9999999999999999e-01  4.6666666670000001e-01
5.0000000000000003e-02  0.0000000000000000e+00  5.3333333329999999e-01
5.0000000000000003e-02  2.9999999999999999e-01  5.3333333329999999e-01
5.0000000000000003e-02  0.0000000000000000e+00  5.9999999999999998e-01
5.0000000000000003e-02  2.9999999999999999e-01  5.9999999999999998e-01
5.0000000000000003e-02  0.0000000000000000e+00  6.6666666669999997e-01
5.0000000000000003e-02  2.9999999999999999e-01  6.6666666669999997e-01
5.0000000000000003e-02  0.0000000000000000e+00  7.3333333329999995e-01
5.0000000000000003e-02  2.9999999999999999e-01  7.3333333329999995e-01
5.0000000000000003e-02  0.0000000000000000e+00  8.0000000000000004e-01
5.0000000000000003e-02  2.9999999999999999e-01  8.0000000000000004e-01
5.0000000000000003e-02  0.0000000000000000e+00  8.6666666670000003e-01
5.0000000000000003e-02  2.9999999999999999e-01  8.6666666670000003e-01
5.0000000000000003e-02  0.0000000000000000e+00  9.3333333330000001e-01
5.0000000000000003e-02  2.9999999999999999e-01  9.3333333330000001e-01

CELLS 0 0


CELL_TYPES 0


POINT_DATA 68

VECTORS VertexNormals float

0.0000000000000000e+00 0.0000000000000000e+00 0.0000000000000000e+00 
0.0000000000000000e+00 0.0000000000000000e+00 0.0000000000000000e+00 
0.0000000000000000e+00 0.0000000000000000e+00 0.0000000000000000e+00 
0.0000000000000000e+00 0.0000000000000000e+00 0.0000000000000000e+00 
0.0000000000000000e+00 0.0000000000000000e+00 0.0000000000000000e+00 
0.0000000000000000e+00 0.0000000000000000e+00 0.0000000000000000e+00 
0.0000000000000000e+00 0.0000000000000000e+00 0.0000000000000000e+00 
0.0000000000000000e+00 0.0000000000000000e+00 0.0000000000000000e+00 
0.0000000000000000e+00 0.0000000000000000e+00 0.0000000000000000e+00 
0.0000000000000000e+00 0.0000000000000000e+00 0.0000000000000000e+00 
0.0000000000000000e+00 0.0000000000000000e+00 0.0000000000000000e+00 
0.0000000000000000e+00 0.0000000000000000e+00 0.0000000000000000e+00 
0.0000000000000000e+00 0.0000000000000000e+00 0.0000000000000000e+00 
0.0000000000000000e+00 0.0000000000000000e+00 0.0000000000000000e+00 
0.0000000000000000e+00 0.0000000000000000e+00 0.0000000000000000e+00 
0.0000000000000000e+00 0.0000000000000000e+00 0.0000000000000000e+00 
0.0000000000000000e+00 0.0000000000000000e+00 0.0000000000000000e+00 
0.0000000000000000e+00 0.0000000000000000e+00 0.0000000000000000e+00 
0.0000000000000000e+00 0.0000000000000000e+00 0.0000000000000000e+00 
0.0000000000000000e+00 0.0000000000000000e+00 0.0000000000000000e+00 
0.0000000000000000e+00 0.0000000000000000e+00 0.0000000000000000e+00 
0.0000000000000000e+00 0.0000000000000000e+00 0.0000000000000000e+00 
0.0000000000000000e+00 0.0000000000000000e+00 0.0000000000000000e+00 
0.0000000000000000e+00 0.0000000000000000e+00 0.0000000000000000e+00 
0.0000000000000000e+00 0.0000000000000000e+00 0.0000000000000000e+00 
0.0000000000000000e+00 0.0000000000000000e+00 0.0000000000000000e+00 
0.0000000000000000e+00 0.0000000000000000e+00 0.0000000000000000e+00 
0.0000000000000000e+00 0.0000000000000000e+00 0.0000000000000000e+00 
0.0000000000000000e+00 0.0000000000000000e+00 0.0000000000000000e+00 
0.0000000000000000e+00 0.0000000000000000e+00 0.0000000000000000e+00 
0.0000000000000000e+00 0.0000000000000000e+00 0.0000000000000000e+00 
0.0000000000000000e+00 0.0000000000000000e+00 0.0000000000000000e+00 
0.0000000000000000e+00 0.0000000000000000e+00 0.0000000000000000e+00 
0.0000000000000000e+00 0.0000000000000000e+00 0.0000000000000000e+00 
0.0000000000000000e+00 0.0000000000000000e+00 0.0000000000000000e+00 
0.0000000000000000e+00 0.0000000000000000e+00 0.0000000000000000e+00 
0.0000000000000000e+00 0.0000000000000000e+00 0.0000000000000000e+00 
0.0000000000000000e+00 0.0000000000000000e+00 0.0000000000000000e+00 
0.0000000000000000e+00 0.0000000000000000e+00 0.0000000000000000e+00 
0.0000000000000000e+00 0.0000000000000000e+00 0.0000000000000000e+00 
0.0000000000000000e+00 0.0000000000000000e+00 0.0000000000000000e+00 
0.0000000000000000e+00 0.0000000000000000e+00 0.0000000000000000e+00 
0.0000000000000000e+00 0.0000000000000000e+00 0.0000000000000000e+00 
0.0000000000000000e+00 0.0000000000000000e+00 0.0000000000000000e+00 
0.0000000000000000e+00 0.0000000000000000e+00 0.0000000000000000e+00 
0.0000000000000000e+00 0.0000000000000000e+00 0.0000000000000000e+00 
0.0000000000000000e+00 0.0000000000000000e+00 0.0000000000000000e+00 
0.0000000000000000e+00 0.0000000000000000e+00 0.0000000000000000e+00 
0.0000000000000000e+00 0.0000000000000000e+00 0.0000000000000000e+00 
0.0000000000000000e+00 0.0000000000000000e+00 0.0000000000000000e+00 
0.0000000000000000e+00 0.0000000000000000e+00 0.0000000000000000e+00 
0.0000000000000000e+00 0.0000000000000000e+00 0.0000000000000000e+00 
0.0000000000000000e+00 0.0000000000000000e+00 0.0000000000000000e+00 
0.0000000000000000e+00 0.0000000000000000e+00 0.0000000000000000e+00 
0.0000000000000000e+00 0.0000000000000000e+00 0.0000000000000000e+00 
0.0000000000000000e+00 0.0000000000000000e+00 0.0000000000000000e+00 
0.0000000000000000e+00 0.0000000000000000e+00 0.0000000000000000e+00 
0.0000000000000000e+00 0.0000000000000000e+00 0.0000000000000000e+00 
0.0000000000000000e+00 0.0000000000000000e+00 0.0000000000000000e+00 
0.0000000000000000e+00 0.0000000000000000e+00 0.0000000000000000e+00 
0.0000000000000000e+00 0.0000000000000000e+00 0.0000000000000000e+00 
0.0000000000000000e+00 0.0000000000000000e+00 0.0000000000000000e+00 
0.0000000000000000e+00 0.0000000000000000e+00 0.0000000000000000e+00 
0.0000000000000000e+00 0.0000000000000000e+00 0.0000000000000000e+00 
0.0000000000000000e+00 0.0000000000000000e+00 0.0000000000000000e+00 
0.0000000000000000e+00 0.0000000000000000e+00 0.0000000000000000e+00 
0.0000000000000000e+00 0.0000000000000000e+00 0.0000000000000000e+00 
0.0000000000000000e+00 0.0000000000000000e+00 0.0000000000000000e+00 

VECTORS Displacements0 float
0.0000000000000000e+00 0.0000000000000000e+00 0.0000000000000000e+00 
1.9615426037528265e-03 0.0000000000000000e+00 1.7913026974606082e-03 
1.9615425526098239e-03 0.0000000000000000e+00 1.7913027006568470e-03 
0.0000000000000000e+00 0.0000000000000000e+00 0.0000000000000000e+00 
5.6840718753800494e-03 0.0000000000000000e+00 2.9745317815911701e-03 
5.6840717499001712e-03 0.0000000000000000e+00 2.9745318201846054e-03 
1.0681917159341759e-02 0.0000000000000000e+00 3.5522790144715184e-03 
1.0681917067482416e-02 0.0000000000000000e+00 3.5522790801830960e-03 
1.6201263457310662e-02 0.0000000000000000e+00 3.6404933826093976e-03 
1.6201263447690774e-02 0.0000000000000000e+00 3.6404934262156065e-03 
2.1761616132522928e-02 0.0000000000000000e+00 3.4413726800928439e-03 
2.1761616122183428e-02 0.0000000000000000e+00 3.4413726692085244e-03 
2.7129081227898401e-02 0.0000000000000000e+00 3.0712565856403366e-03 
2.7129081115823118e-02 0.0000000000000000e+00 3.0712565352198347e-03 
3.2165658142456609e-02 0.0000000000000000e+00 2.5081882175165115e-03 
3.2165657962866218e-02 0.0000000000000000e+00 2.5081881733150669e-03 
3.6543966673509301e-02 0.0000000000000000e+00 1.6580061529325668e-03 
3.6543966579402315e-02 0.0000000000000000e+00 1.6580061412122342e-03 
3.9661519000017680e-02 0.0000000000000000e+00 5.3918844500787594e-04 
3.9661519055435329e-02 0.0000000000000000e+00 5.3918844442040923e-04 
4.1125280238512273e-02 0.0000000000000000e+00 -6.0301389888311237e-04 
4.1125280309985482e-02 0.0000000000000000e+00 -6.0301390778451369e-04 
4.1113903570974469e-02 0.0000000000000000e+00 -1.5501573017993630e-03 
4.1113903550021300e-02 0.0000000000000000e+00 -1.5501572943536555e-03 
3.9999994925913260e-02 0.0000000000000000e+00 -2.2696527204784309e-03 
3.9999994896492100e-02 0.0000000000000000e+00 -2.2696526795266902e-03 
3.8057738870410592e-02 0.0000000000000000e+00 -2.7481916463396403e-03 
3.8057738904046512e-02 0.0000000000000000e+00 -2.7481916121482822e-03 
3.5656233607655810e-02 0.0000000000000000e+00 -2.9554135561938632e-03 
3.5656233532017335e-02 0.0000000000000000e+00 -2.9554135856241026e-03 
3.3261128505663276e-02 0.0000000000000000e+00 -3.0106015584499737e-03 
3.3261128109724508e-02 0.0000000000000000e+00 -3.0106016494041775e-03 
3.3243619809430344e-02 0.0000000000000000e+00 -1.9019086915479605e-03 
3.3243619488736303e-02 0.0000000000000000e+00 -1.9019087136413208e-03 
3.3224998465318768e-02 0.0000000000000000e+00 -5.9882079799077666e-04 
3.3224998252601209e-02 0.0000000000000000e+00 -5.9882077492919255e-04 
3.3199746987593197e-02 0.0000000000000000e+00 4.9685773021531927e-04 
3.3199746885926057e-02 0.0000000000000000e+00 4.9685775791201555e-04 
0.0000000000000000e+00 0.0000000000000000e+00 0.0000000000000000e+00 
0.0000000000000000e+00 0.0000000000000000e+00 0.0000000000000000e+00 
1.8583554726738873e-03 0.0000000000000000e+00 -1.8126527420672565e-03 
1.8583553729129903e-03 0.0000000000000000e+00 -1.8126527457815033e-03 
5.4671219986419575e-03 0.0000000000000000e+00 -3.1324025083832893e-03 
5.4671219902190649e-03 0.0000000000000000e+00 -3.1324025108828328e-03 
1.0373762768182651e-02 0.0000000000000000e+00 -3.9861047974006983e-03 
1.0373762791255254e-02 0.0000000000000000e+00 -3.9861047828884354e-03 
1.5849929716339167e-02 0.0000000000000000e+00 -4.4360556173720792e-03 
1.5849929718705989e-02 0.0000000000000000e+00 -4.4360556073470541e-03 
2.1415081081066486e-02 0.0000000000000000e+00 -4.6164740714389196e-03 
2.1415081094632235e-02 0.0000000000000000e+00 -4.6164740877203125e-03 
2.6824716219350838e-02 0.0000000000000000e+00 -4.6154755983761437e-03 
2.6824716278576723e-02 0.0000000000000000e+00 -4.6154756290748269e-03 
3.1924064562192586e-02 0.0000000000000000e+00 -4.3996234618627304e-03 
3.1924064587048849e-02 0.0000000000000000e+00 -4.3996234698910246e-03 
3.6396274885839949e-02 0.0000000000000000e+00 -3.8362913614347948e-03 
3.6396274730923779e-02 0.0000000000000000e+00 -3.8362913354185986e-03 
3.9606614887307975e-02 0.0000000000000000e+00 -2.8879417175624905e-03 
3.9606614566851821e-02 0.0000000000000000e+00 -2.8879417007929044e-03 
4.1119234002198878e-02 0.0000000000000000e+00 -1.7985979283388501e-03 
4.1119233757658399e-02 0.0000000000000000e+00 -1.7985979479722307e-03 
4.1107966999561998e-02 0.0000000000000000e+00 -8.4942928910491174e-04 
4.1107966974950554e-02 0.0000000000000000e+00 -8.4942929640487554e-04 
3.9976411112642656e-02 0.0000000000000000e+00 -1.2628453353500302e-04 
3.9976411155997316e-02 0.0000000000000000e+00 -1.2628447615715120e-04 
3.8005813903991756e-02 0.0000000000000000e+00 3.3344344329754179e-04 
3.8005813821480758e-02 0.0000000000000000e+00 3.3344353682151530e-04 
3.5589846036118672e-02 0.0000000000000000e+00 4.9883322249829514e-04 
3.5589845920908685e-02 0.0000000000000000e+00 4.9883327163162123e-04 

