# vtk DataFile Version 2.0

ASCII

DATASET UNSTRUCTURED_GRID

POINTS 68 float 

-5.0000000000000003e-02  2.9999999999999999e-01  0.0000000000000000e+00
-5.0000000000000003e-02  2.9999999999999999e-01  6.6666666669999999e-02
-5.0000000000000003e-02  0.0000000000000000e+00  6.6666666669999999e-02
-5.0000000000000003e-02  0.0000000000000000e+00  0.0000000000000000e+00
-5.0000000000000003e-02  2.9999999999999999e-01  1.3333333330000000e-01
-5.0000000000000003e-02  0.0000000000000000e+00  1.3333333330000000e-01
-5.0000000000000003e-02  2.9999999999999999e-01  2.0000000000000001e-01
-5.0000000000000003e-02  0.0000000000000000e+00  2.0000000000000001e-01
-5.0000000000000003e-02  2.9999999999999999e-01  2.6666666670000000e-01
-5.0000000000000003e-02  0.0000000000000000e+00  2.6666666670000000e-01
-5.0000000000000003e-02  2.9999999999999999e-01  3.3333333329999998e-01
-5.0000000000000003e-02  0.0000000000000000e+00  3.3333333329999998e-01
-5.0000000000000003e-02  2.9999999999999999e-01  4.0000000000000002e-01
-5.0000000000000003e-02  0.0000000000000000e+00  4.0000000000000002e-01
-5.0000000000000003e-02  2.9999999999999999e-01  4.6666666670000001e-01
-5.0000000000000003e-02  0.0000000000000000e+00  4.6666666670000001e-01
-5.0000000000000003e-02  2.9999999999999999e-01  5.3333333329999999e-01
-5.0000000000000003e-02  0.0000000000000000e+00  5.3333333329999999e-01
-5.0000000000000003e-02  2.9999999999999999e-01  5.9999999999999998e-01
-5.0000000000000003e-02  0.0000000000000000e+00  5.9999999999999998e-01
-5.0000000000000003e-02  2.9999999999999999e-01  6.6666666669999997e-01
-5.0000000000000003e-02  0.0000000000000000e+00  6.6666666669999997e-01
-5.0000000000000003e-02  2.9999999999999999e-01  7.3333333329999995e-01
-5.0000000000000003e-02  0.0000000000000000e+00  7.3333333329999995e-01
-5.0000000000000003e-02  2.9999999999999999e-01  8.0000000000000004e-01
-5.0000000000000003e-02  0.0000000000000000e+00  8.0000000000000004e-01
-5.0000000000000003e-02  2.9999999999999999e-01  8.6666666670000003e-01
-5.0000000000000003e-02  0.0000000000000000e+00  8.6666666670000003e-01
-5.0000000000000003e-02  2.9999999999999999e-01  9.3333333330000001e-01
-5.0000000000000003e-02  0.0000000000000000e+00  9.3333333330000001e-01
-5.0000000000000003e-02  2.9999999999999999e-01  1.0000000000000000e+00
-5.0000000000000003e-02  0.0000000000000000e+00  1.0000000000000000e+00
-1.6666666670000000e-02  2.9999999999999999e-01  1.0000000000000000e+00
-1.6666666670000000e-02  0.0000000000000000e+00  1.0000000000000000e+00
1.6666666670000000e-02  2.9999999999999999e-01  1.0000000000000000e+00
1.6666666670000000e-02  0.0000000000000000e+00  1.0000000000000000e+00
5.0000000000000003e-02  2.9999999999999999e-01  1.0000000000000000e+00
5.0000000000000003e-02  0.0000000000000000e+00  1.0000000000000000e+00
5.0000000000000003e-02  2.9999999999999999e-01  0.0000000000000000e+00
5.0000000000000003e-02  0.0000000000000000e+00  0.0000000000000000e+00
5.0000000000000003e-02  0.0000000000000000e+00  6.6666666669999999e-02
5.0000000000000003e-02  2.9999999999999999e-01  6.6666666669999999e-02
5.0000000000000003e-02  0.0000000000000000e+00  1.3333333330000000e-01
5.0000000000000003e-02  2.9999999999999999e-01  1.3333333330000000e-01
5.0000000000000003e-02  0.0000000000000000e+00  2.0000000000000001e-01
5.0000000000000003e-02  2.9999999999999999e-01  2.0000000000000001e-01
5.0000000000000003e-02  0.0000000000000000e+00  2.6666666670000000e-01
5.0000000000000003e-02  2.9999999999999999e-01  2.6666666670000000e-01
5.0000000000000003e-02  0.0000000000000000e+00  3.3333333329999998e-01
5.0000000000000003e-02  2.9999999999999999e-01  3.3333333329999998e-01
5.0000000000000003e-02  0.0000000000000000e+00  4.0000000000000002e-01
5.0000000000000003e-02  2.9999999999999999e-01  4.0000000000000002e-01
5.0000000000000003e-02  0.0000000000000000e+00  4.6666666670000001e-01
5.0000000000000003e-02  2.9999999999999999e-01  4.6666666670000001e-01
5.0000000000000003e-02  0.0000000000000000e+00  5.3333333329999999e-01
5.0000000000000003e-02  2.9999999999999999e-01  5.3333333329999999e-01
5.0000000000000003e-02  0.0000000000000000e+00  5.9999999999999998e-01
5.0000000000000003e-02  2.9999999999999999e-01  5.9999999999999998e-01
5.0000000000000003e-02  0.0000000000000000e+00  6.6666666669999997e-01
5.0000000000000003e-02  2.9999999999999999e-01  6.6666666669999997e-01
5.0000000000000003e-02  0.0000000000000000e+00  7.3333333329999995e-01
5.0000000000000003e-02  2.9999999999999999e-01  7.3333333329999995e-01
5.0000000000000003e-02  0.0000000000000000e+00  8.0000000000000004e-01
5.0000000000000003e-02  2.9999999999999999e-01  8.0000000000000004e-01
5.0000000000000003e-02  0.0000000000000000e+00  8.6666666670000003e-01
5.0000000000000003e-02  2.9999999999999999e-01  8.6666666670000003e-01
5.0000000000000003e-02  0.0000000000000000e+00  9.3333333330000001e-01
5.0000000000000003e-02  2.9999999999999999e-01  9.3333333330000001e-01

CELLS 0 0


CELL_TYPES 0


POINT_DATA 68

VECTORS VertexNormals float

0.0000000000000000e+00 0.0000000000000000e+00 0.0000000000000000e+00 
0.0000000000000000e+00 0.0000000000000000e+00 0.0000000000000000e+00 
0.0000000000000000e+00 0.0000000000000000e+00 0.0000000000000000e+00 
0.0000000000000000e+00 0.0000000000000000e+00 0.0000000000000000e+00 
0.0000000000000000e+00 0.0000000000000000e+00 0.0000000000000000e+00 
0.0000000000000000e+00 0.0000000000000000e+00 0.0000000000000000e+00 
0.0000000000000000e+00 0.0000000000000000e+00 0.0000000000000000e+00 
0.0000000000000000e+00 0.0000000000000000e+00 0.0000000000000000e+00 
0.0000000000000000e+00 0.0000000000000000e+00 0.0000000000000000e+00 
0.0000000000000000e+00 0.0000000000000000e+00 0.0000000000000000e+00 
0.0000000000000000e+00 0.0000000000000000e+00 0.0000000000000000e+00 
0.0000000000000000e+00 0.0000000000000000e+00 0.0000000000000000e+00 
0.0000000000000000e+00 0.0000000000000000e+00 0.0000000000000000e+00 
0.0000000000000000e+00 0.0000000000000000e+00 0.0000000000000000e+00 
0.0000000000000000e+00 0.0000000000000000e+00 0.0000000000000000e+00 
0.0000000000000000e+00 0.0000000000000000e+00 0.0000000000000000e+00 
0.0000000000000000e+00 0.0000000000000000e+00 0.0000000000000000e+00 
0.0000000000000000e+00 0.0000000000000000e+00 0.0000000000000000e+00 
0.0000000000000000e+00 0.0000000000000000e+00 0.0000000000000000e+00 
0.0000000000000000e+00 0.0000000000000000e+00 0.0000000000000000e+00 
0.0000000000000000e+00 0.0000000000000000e+00 0.0000000000000000e+00 
0.0000000000000000e+00 0.0000000000000000e+00 0.0000000000000000e+00 
0.0000000000000000e+00 0.0000000000000000e+00 0.0000000000000000e+00 
0.0000000000000000e+00 0.0000000000000000e+00 0.0000000000000000e+00 
0.0000000000000000e+00 0.0000000000000000e+00 0.0000000000000000e+00 
0.0000000000000000e+00 0.0000000000000000e+00 0.0000000000000000e+00 
0.0000000000000000e+00 0.0000000000000000e+00 0.0000000000000000e+00 
0.0000000000000000e+00 0.0000000000000000e+00 0.0000000000000000e+00 
0.0000000000000000e+00 0.0000000000000000e+00 0.0000000000000000e+00 
0.0000000000000000e+00 0.0000000000000000e+00 0.0000000000000000e+00 
0.0000000000000000e+00 0.0000000000000000e+00 0.0000000000000000e+00 
0.0000000000000000e+00 0.0000000000000000e+00 0.0000000000000000e+00 
0.0000000000000000e+00 0.0000000000000000e+00 0.0000000000000000e+00 
0.0000000000000000e+00 0.0000000000000000e+00 0.0000000000000000e+00 
0.0000000000000000e+00 0.0000000000000000e+00 0.0000000000000000e+00 
0.0000000000000000e+00 0.0000000000000000e+00 0.0000000000000000e+00 
0.0000000000000000e+00 0.0000000000000000e+00 0.0000000000000000e+00 
0.0000000000000000e+00 0.0000000000000000e+00 0.0000000000000000e+00 
0.0000000000000000e+00 0.0000000000000000e+00 0.0000000000000000e+00 
0.0000000000000000e+00 0.0000000000000000e+00 0.0000000000000000e+00 
0.0000000000000000e+00 0.0000000000000000e+00 0.0000000000000000e+00 
0.0000000000000000e+00 0.0000000000000000e+00 0.0000000000000000e+00 
0.0000000000000000e+00 0.0000000000000000e+00 0.0000000000000000e+00 
0.0000000000000000e+00 0.0000000000000000e+00 0.0000000000000000e+00 
0.0000000000000000e+00 0.0000000000000000e+00 0.0000000000000000e+00 
0.0000000000000000e+00 0.0000000000000000e+00 0.0000000000000000e+00 
0.0000000000000000e+00 0.0000000000000000e+00 0.0000000000000000e+00 
0.0000000000000000e+00 0.0000000000000000e+00 0.0000000000000000e+00 
0.0000000000000000e+00 0.0000000000000000e+00 0.0000000000000000e+00 
0.0000000000000000e+00 0.0000000000000000e+00 0.0000000000000000e+00 
0.0000000000000000e+00 0.0000000000000000e+00 0.0000000000000000e+00 
0.0000000000000000e+00 0.0000000000000000e+00 0.0000000000000000e+00 
0.0000000000000000e+00 0.0000000000000000e+00 0.0000000000000000e+00 
0.0000000000000000e+00 0.0000000000000000e+00 0.0000000000000000e+00 
0.0000000000000000e+00 0.0000000000000000e+00 0.0000000000000000e+00 
0.0000000000000000e+00 0.0000000000000000e+00 0.0000000000000000e+00 
0.0000000000000000e+00 0.0000000000000000e+00 0.0000000000000000e+00 
0.0000000000000000e+00 0.0000000000000000e+00 0.0000000000000000e+00 
0.0000000000000000e+00 0.0000000000000000e+00 0.0000000000000000e+00 
0.0000000000000000e+00 0.0000000000000000e+00 0.0000000000000000e+00 
0.0000000000000000e+00 0.0000000000000000e+00 0.0000000000000000e+00 
0.0000000000000000e+00 0.0000000000000000e+00 0.0000000000000000e+00 
0.0000000000000000e+00 0.0000000000000000e+00 0.0000000000000000e+00 
0.0000000000000000e+00 0.0000000000000000e+00 0.0000000000000000e+00 
0.0000000000000000e+00 0.0000000000000000e+00 0.0000000000000000e+00 
0.0000000000000000e+00 0.0000000000000000e+00 0.0000000000000000e+00 
0.0000000000000000e+00 0.0000000000000000e+00 0.0000000000000000e+00 
0.0000000000000000e+00 0.0000000000000000e+00 0.0000000000000000e+00 

VECTORS Displacements0 float
0.0000000000000000e+00 0.0000000000000000e+00 0.0000000000000000e+00 
1.7700239394806364e-03 0.0000000000000000e+00 2.2287805485731805e-03 
1.7700240630739161e-03 0.0000000000000000e+00 2.2287804419775219e-03 
0.0000000000000000e+00 0.0000000000000000e+00 0.0000000000000000e+00 
6.7999059975425331e-03 0.0000000000000000e+00 4.3478153945877727e-03 
6.7999060883670130e-03 0.0000000000000000e+00 4.3478151985392724e-03 
1.5257754705133519e-02 0.0000000000000000e+00 5.9674801253180969e-03 
1.5257754584514768e-02 0.0000000000000000e+00 5.9674799991119819e-03 
2.6583935783345024e-02 0.0000000000000000e+00 6.8518361537562422e-03 
2.6583935613176894e-02 0.0000000000000000e+00 6.8518361353142616e-03 
4.0174770607350294e-02 0.0000000000000000e+00 6.9998752712498932e-03 
4.0174770668504937e-02 0.0000000000000000e+00 6.9998752694681414e-03 
5.5573603653258752e-02 0.0000000000000000e+00 6.5083348805139545e-03 
5.5573604004465073e-02 0.0000000000000000e+00 6.5083348070964775e-03 
7.2488983318624092e-02 0.0000000000000000e+00 5.4928036004650294e-03 
7.2488983709596999e-02 0.0000000000000000e+00 5.4928034802939132e-03 
9.0803406249629154e-02 0.0000000000000000e+00 4.0480987903146262e-03 
9.0803406407130416e-02 0.0000000000000000e+00 4.0480987252998202e-03 
1.1051965077325993e-01 0.0000000000000000e+00 2.1637083605627536e-03 
1.1051965070486416e-01 0.0000000000000000e+00 2.1637083963165216e-03 
1.3156179330786513e-01 0.0000000000000000e+00 -2.4642998733034882e-04 
1.3156179323614620e-01 0.0000000000000000e+00 -2.4642992956310991e-04 
1.5367578814757676e-01 0.0000000000000000e+00 -3.1914290391199737e-03 
1.5367578816041219e-01 0.0000000000000000e+00 -3.1914290597171574e-03 
1.7659876236831540e-01 0.0000000000000000e+00 -6.6115172657169596e-03 
1.7659876233272320e-01 0.0000000000000000e+00 -6.6115173498216412e-03 
2.0009331291483490e-01 0.0000000000000000e+00 -1.0464273824694049e-02 
2.0009331281353740e-01 0.0000000000000000e+00 -1.0464273871944714e-02 
2.2382738907911023e-01 0.0000000000000000e+00 -1.4637870830984747e-02 
2.2382738922282841e-01 0.0000000000000000e+00 -1.4637870809641615e-02 
2.4758566990591921e-01 0.0000000000000000e+00 -1.8962272644258496e-02 
2.4758567056426375e-01 0.0000000000000000e+00 -1.8962272628862322e-02 
2.4546135491204957e-01 0.0000000000000000e+00 -3.0795388996267353e-02 
2.4546135542338454e-01 0.0000000000000000e+00 -3.0795389077453460e-02 
2.4325343842563052e-01 0.0000000000000000e+00 -4.2685645186962821e-02 
2.4325343874883196e-01 0.0000000000000000e+00 -4.2685645302634904e-02 
2.4104603325398755e-01 0.0000000000000000e+00 -5.4512783913604715e-02 
2.4104603340076691e-01 0.0000000000000000e+00 -5.4512783995608972e-02 
0.0000000000000000e+00 0.0000000000000000e+00 0.0000000000000000e+00 
0.0000000000000000e+00 0.0000000000000000e+00 0.0000000000000000e+00 
1.6877530226542675e-03 0.0000000000000000e+00 -2.5696072628368779e-03 
1.6877533176513724e-03 0.0000000000000000e+00 -2.5696071828796591e-03 
6.3476935384090549e-03 0.0000000000000000e+00 -5.3617727673652997e-03 
6.3476935514403879e-03 0.0000000000000000e+00 -5.3617727580019831e-03 
1.4261825290528260e-02 0.0000000000000000e+00 -8.2572183676609800e-03 
1.4261825302499906e-02 0.0000000000000000e+00 -8.2572183961945166e-03 
2.4955319136498018e-02 0.0000000000000000e+00 -1.1173759779179164e-02 
2.4955319164142460e-02 0.0000000000000000e+00 -1.1173759792955609e-02 
3.7917562992293770e-02 0.0000000000000000e+00 -1.4130541754996872e-02 
3.7917562907910200e-02 0.0000000000000000e+00 -1.4130541728226299e-02 
5.2719520692746852e-02 0.0000000000000000e+00 -1.7191750912124666e-02 
5.2719520509242113e-02 0.0000000000000000e+00 -1.7191750871058085e-02 
6.9052773867414541e-02 0.0000000000000000e+00 -2.0438887626100438e-02 
6.9052773813964574e-02 0.0000000000000000e+00 -2.0438887620020260e-02 
8.6773807999523764e-02 0.0000000000000000e+00 -2.3981804333680086e-02 
8.6773808261841501e-02 0.0000000000000000e+00 -2.3981804367438953e-02 
1.0587670266816437e-01 0.0000000000000000e+00 -2.7882143586791239e-02 
1.0587670311657237e-01 0.0000000000000000e+00 -2.7882143601248469e-02 
1.2633236085630323e-01 0.0000000000000000e+00 -3.2087869351535139e-02 
1.2633236115245383e-01 0.0000000000000000e+00 -3.2087869311618583e-02 
1.4794309231029532e-01 0.0000000000000000e+00 -3.6497514348434353e-02 
1.4794309233705003e-01 0.0000000000000000e+00 -3.6497514329126228e-02 
1.7046666985964615e-01 0.0000000000000000e+00 -4.1037077914353820e-02 
1.7046666985158460e-01 0.0000000000000000e+00 -4.1037078025817839e-02 
1.9369619034213326e-01 0.0000000000000000e+00 -4.5612577070158561e-02 
1.9369619051225265e-01 0.0000000000000000e+00 -4.5612577287212748e-02 
2.1731134557899018e-01 0.0000000000000000e+00 -5.0115493343812073e-02 
2.1731134575607597e-01 0.0000000000000000e+00 -5.0115493482357401e-02 

