# vtk DataFile Version 2.0

ASCII

DATASET UNSTRUCTURED_GRID

POINTS 68 double 

-5.0000000000000003e-02  2.9999999999999999e-01  0.0000000000000000e+00
-5.0000000000000003e-02  2.9999999999999999e-01  6.6666666669999999e-02
-5.0000000000000003e-02  0.0000000000000000e+00  6.6666666669999999e-02
-5.0000000000000003e-02  0.0000000000000000e+00  0.0000000000000000e+00
-5.0000000000000003e-02  2.9999999999999999e-01  1.3333333330000000e-01
-5.0000000000000003e-02  0.0000000000000000e+00  1.3333333330000000e-01
-5.0000000000000003e-02  2.9999999999999999e-01  2.0000000000000001e-01
-5.0000000000000003e-02  0.0000000000000000e+00  2.0000000000000001e-01
-5.0000000000000003e-02  2.9999999999999999e-01  2.6666666670000000e-01
-5.0000000000000003e-02  0.0000000000000000e+00  2.6666666670000000e-01
-5.0000000000000003e-02  2.9999999999999999e-01  3.3333333329999998e-01
-5.0000000000000003e-02  0.0000000000000000e+00  3.3333333329999998e-01
-5.0000000000000003e-02  2.9999999999999999e-01  4.0000000000000002e-01
-5.0000000000000003e-02  0.0000000000000000e+00  4.0000000000000002e-01
-5.0000000000000003e-02  2.9999999999999999e-01  4.6666666670000001e-01
-5.0000000000000003e-02  0.0000000000000000e+00  4.6666666670000001e-01
-5.0000000000000003e-02  2.9999999999999999e-01  5.3333333329999999e-01
-5.0000000000000003e-02  0.0000000000000000e+00  5.3333333329999999e-01
-5.0000000000000003e-02  2.9999999999999999e-01  5.9999999999999998e-01
-5.0000000000000003e-02  0.0000000000000000e+00  5.9999999999999998e-01
-5.0000000000000003e-02  2.9999999999999999e-01  6.6666666669999997e-01
-5.0000000000000003e-02  0.0000000000000000e+00  6.6666666669999997e-01
-5.0000000000000003e-02  2.9999999999999999e-01  7.3333333329999995e-01
-5.0000000000000003e-02  0.0000000000000000e+00  7.3333333329999995e-01
-5.0000000000000003e-02  2.9999999999999999e-01  8.0000000000000004e-01
-5.0000000000000003e-02  0.0000000000000000e+00  8.0000000000000004e-01
-5.0000000000000003e-02  2.9999999999999999e-01  8.6666666670000003e-01
-5.0000000000000003e-02  0.0000000000000000e+00  8.6666666670000003e-01
-5.0000000000000003e-02  2.9999999999999999e-01  9.3333333330000001e-01
-5.0000000000000003e-02  0.0000000000000000e+00  9.3333333330000001e-01
-5.0000000000000003e-02  2.9999999999999999e-01  1.0000000000000000e+00
-5.0000000000000003e-02  0.0000000000000000e+00  1.0000000000000000e+00
-1.6666666670000000e-02  2.9999999999999999e-01  1.0000000000000000e+00
-1.6666666670000000e-02  0.0000000000000000e+00  1.0000000000000000e+00
1.6666666670000000e-02  2.9999999999999999e-01  1.0000000000000000e+00
1.6666666670000000e-02  0.0000000000000000e+00  1.0000000000000000e+00
5.0000000000000003e-02  2.9999999999999999e-01  1.0000000000000000e+00
5.0000000000000003e-02  0.0000000000000000e+00  1.0000000000000000e+00
5.0000000000000003e-02  2.9999999999999999e-01  0.0000000000000000e+00
5.0000000000000003e-02  0.0000000000000000e+00  0.0000000000000000e+00
5.0000000000000003e-02  0.0000000000000000e+00  6.6666666669999999e-02
5.0000000000000003e-02  2.9999999999999999e-01  6.6666666669999999e-02
5.0000000000000003e-02  0.0000000000000000e+00  1.3333333330000000e-01
5.0000000000000003e-02  2.9999999999999999e-01  1.3333333330000000e-01
5.0000000000000003e-02  0.0000000000000000e+00  2.0000000000000001e-01
5.0000000000000003e-02  2.9999999999999999e-01  2.0000000000000001e-01
5.0000000000000003e-02  0.0000000000000000e+00  2.6666666670000000e-01
5.0000000000000003e-02  2.9999999999999999e-01  2.6666666670000000e-01
5.0000000000000003e-02  0.0000000000000000e+00  3.3333333329999998e-01
5.0000000000000003e-02  2.9999999999999999e-01  3.3333333329999998e-01
5.0000000000000003e-02  0.0000000000000000e+00  4.0000000000000002e-01
5.0000000000000003e-02  2.9999999999999999e-01  4.0000000000000002e-01
5.0000000000000003e-02  0.0000000000000000e+00  4.6666666670000001e-01
5.0000000000000003e-02  2.9999999999999999e-01  4.6666666670000001e-01
5.0000000000000003e-02  0.0000000000000000e+00  5.3333333329999999e-01
5.0000000000000003e-02  2.9999999999999999e-01  5.3333333329999999e-01
5.0000000000000003e-02  0.0000000000000000e+00  5.9999999999999998e-01
5.0000000000000003e-02  2.9999999999999999e-01  5.9999999999999998e-01
5.0000000000000003e-02  0.0000000000000000e+00  6.6666666669999997e-01
5.0000000000000003e-02  2.9999999999999999e-01  6.6666666669999997e-01
5.0000000000000003e-02  0.0000000000000000e+00  7.3333333329999995e-01
5.0000000000000003e-02  2.9999999999999999e-01  7.3333333329999995e-01
5.0000000000000003e-02  0.0000000000000000e+00  8.0000000000000004e-01
5.0000000000000003e-02  2.9999999999999999e-01  8.0000000000000004e-01
5.0000000000000003e-02  0.0000000000000000e+00  8.6666666670000003e-01
5.0000000000000003e-02  2.9999999999999999e-01  8.6666666670000003e-01
5.0000000000000003e-02  0.0000000000000000e+00  9.3333333330000001e-01
5.0000000000000003e-02  2.9999999999999999e-01  9.3333333330000001e-01

CELLS 0 0


CELL_TYPES 0


POINT_DATA 68

VECTORS VertexNormals double

0.0000000000000000e+00 0.0000000000000000e+00 0.0000000000000000e+00 
0.0000000000000000e+00 0.0000000000000000e+00 0.0000000000000000e+00 
0.0000000000000000e+00 0.0000000000000000e+00 0.0000000000000000e+00 
0.0000000000000000e+00 0.0000000000000000e+00 0.0000000000000000e+00 
0.0000000000000000e+00 0.0000000000000000e+00 0.0000000000000000e+00 
0.0000000000000000e+00 0.0000000000000000e+00 0.0000000000000000e+00 
0.0000000000000000e+00 0.0000000000000000e+00 0.0000000000000000e+00 
0.0000000000000000e+00 0.0000000000000000e+00 0.0000000000000000e+00 
0.0000000000000000e+00 0.0000000000000000e+00 0.0000000000000000e+00 
0.0000000000000000e+00 0.0000000000000000e+00 0.0000000000000000e+00 
0.0000000000000000e+00 0.0000000000000000e+00 0.0000000000000000e+00 
0.0000000000000000e+00 0.0000000000000000e+00 0.0000000000000000e+00 
0.0000000000000000e+00 0.0000000000000000e+00 0.0000000000000000e+00 
0.0000000000000000e+00 0.0000000000000000e+00 0.0000000000000000e+00 
0.0000000000000000e+00 0.0000000000000000e+00 0.0000000000000000e+00 
0.0000000000000000e+00 0.0000000000000000e+00 0.0000000000000000e+00 
0.0000000000000000e+00 0.0000000000000000e+00 0.0000000000000000e+00 
0.0000000000000000e+00 0.0000000000000000e+00 0.0000000000000000e+00 
0.0000000000000000e+00 0.0000000000000000e+00 0.0000000000000000e+00 
0.0000000000000000e+00 0.0000000000000000e+00 0.0000000000000000e+00 
0.0000000000000000e+00 0.0000000000000000e+00 0.0000000000000000e+00 
0.0000000000000000e+00 0.0000000000000000e+00 0.0000000000000000e+00 
0.0000000000000000e+00 0.0000000000000000e+00 0.0000000000000000e+00 
0.0000000000000000e+00 0.0000000000000000e+00 0.0000000000000000e+00 
0.0000000000000000e+00 0.0000000000000000e+00 0.0000000000000000e+00 
0.0000000000000000e+00 0.0000000000000000e+00 0.0000000000000000e+00 
0.0000000000000000e+00 0.0000000000000000e+00 0.0000000000000000e+00 
0.0000000000000000e+00 0.0000000000000000e+00 0.0000000000000000e+00 
0.0000000000000000e+00 0.0000000000000000e+00 0.0000000000000000e+00 
0.0000000000000000e+00 0.0000000000000000e+00 0.0000000000000000e+00 
0.0000000000000000e+00 0.0000000000000000e+00 0.0000000000000000e+00 
0.0000000000000000e+00 0.0000000000000000e+00 0.0000000000000000e+00 
0.0000000000000000e+00 0.0000000000000000e+00 0.0000000000000000e+00 
0.0000000000000000e+00 0.0000000000000000e+00 0.0000000000000000e+00 
0.0000000000000000e+00 0.0000000000000000e+00 0.0000000000000000e+00 
0.0000000000000000e+00 0.0000000000000000e+00 0.0000000000000000e+00 
0.0000000000000000e+00 0.0000000000000000e+00 0.0000000000000000e+00 
0.0000000000000000e+00 0.0000000000000000e+00 0.0000000000000000e+00 
0.0000000000000000e+00 0.0000000000000000e+00 0.0000000000000000e+00 
0.0000000000000000e+00 0.0000000000000000e+00 0.0000000000000000e+00 
0.0000000000000000e+00 0.0000000000000000e+00 0.0000000000000000e+00 
0.0000000000000000e+00 0.0000000000000000e+00 0.0000000000000000e+00 
0.0000000000000000e+00 0.0000000000000000e+00 0.0000000000000000e+00 
0.0000000000000000e+00 0.0000000000000000e+00 0.0000000000000000e+00 
0.0000000000000000e+00 0.0000000000000000e+00 0.0000000000000000e+00 
0.0000000000000000e+00 0.0000000000000000e+00 0.0000000000000000e+00 
0.0000000000000000e+00 0.0000000000000000e+00 0.0000000000000000e+00 
0.0000000000000000e+00 0.0000000000000000e+00 0.0000000000000000e+00 
0.0000000000000000e+00 0.0000000000000000e+00 0.0000000000000000e+00 
0.0000000000000000e+00 0.0000000000000000e+00 0.0000000000000000e+00 
0.0000000000000000e+00 0.0000000000000000e+00 0.0000000000000000e+00 
0.0000000000000000e+00 0.0000000000000000e+00 0.0000000000000000e+00 
0.0000000000000000e+00 0.0000000000000000e+00 0.0000000000000000e+00 
0.0000000000000000e+00 0.0000000000000000e+00 0.0000000000000000e+00 
0.0000000000000000e+00 0.0000000000000000e+00 0.0000000000000000e+00 
0.0000000000000000e+00 0.0000000000000000e+00 0.0000000000000000e+00 
0.0000000000000000e+00 0.0000000000000000e+00 0.0000000000000000e+00 
0.0000000000000000e+00 0.0000000000000000e+00 0.0000000000000000e+00 
0.0000000000000000e+00 0.0000000000000000e+00 0.0000000000000000e+00 
0.0000000000000000e+00 0.0000000000000000e+00 0.0000000000000000e+00 
0.0000000000000000e+00 0.0000000000000000e+00 0.0000000000000000e+00 
0.0000000000000000e+00 0.0000000000000000e+00 0.0000000000000000e+00 
0.0000000000000000e+00 0.0000000000000000e+00 0.0000000000000000e+00 
0.0000000000000000e+00 0.0000000000000000e+00 0.0000000000000000e+00 
0.0000000000000000e+00 0.0000000000000000e+00 0.0000000000000000e+00 
0.0000000000000000e+00 0.0000000000000000e+00 0.0000000000000000e+00 
0.0000000000000000e+00 0.0000000000000000e+00 0.0000000000000000e+00 
0.0000000000000000e+00 0.0000000000000000e+00 0.0000000000000000e+00 

VECTORS Displacements0 double
0.0000000000000000e+00 0.0000000000000000e+00 0.0000000000000000e+00 
1.8359852574521248e-03 0.0000000000000000e+00 1.6902643158018438e-03 
1.8359852070763396e-03 0.0000000000000000e+00 1.6902643211520159e-03 
0.0000000000000000e+00 0.0000000000000000e+00 0.0000000000000000e+00 
5.2867525207473346e-03 0.0000000000000000e+00 2.8273593039999175e-03 
5.2867524016806181e-03 0.0000000000000000e+00 2.8273593420295620e-03 
9.9511569146628568e-03 0.0000000000000000e+00 3.4166911877958274e-03 
9.9511568318518297e-03 0.0000000000000000e+00 3.4166912515833947e-03 
1.5131833305392205e-02 0.0000000000000000e+00 3.5110385139837867e-03 
1.5131833302160060e-02 0.0000000000000000e+00 3.5110385556358366e-03 
2.0269968378481596e-02 0.0000000000000000e+00 3.2532429126783642e-03 
2.0269968367432022e-02 0.0000000000000000e+00 3.2532429012402881e-03 
2.4969249823754071e-02 0.0000000000000000e+00 2.8073580608106467e-03 
2.4969249710609251e-02 0.0000000000000000e+00 2.8073580151642373e-03 
2.9084485331962853e-02 0.0000000000000000e+00 2.2810318181089775e-03 
2.9084485161950425e-02 0.0000000000000000e+00 2.2810317808097847e-03 
3.2544763349568240e-02 0.0000000000000000e+00 1.6900190880827803e-03 
3.2544763262673408e-02 0.0000000000000000e+00 1.6900190789829986e-03 
3.5220996592686099e-02 0.0000000000000000e+00 9.4580776698788077e-04 
3.5220996640553059e-02 0.0000000000000000e+00 9.4580777007439488e-04 
3.6748440544803307e-02 0.0000000000000000e+00 -2.7644207565150460e-05 
3.6748440613189409e-02 0.0000000000000000e+00 -2.7644212938841319e-05 
3.6750800270220069e-02 0.0000000000000000e+00 -1.0786041647998829e-03 
3.6750800252205444e-02 0.0000000000000000e+00 -1.0786041603203993e-03 
3.5325664966777748e-02 0.0000000000000000e+00 -1.9316095560325431e-03 
3.5325664937032514e-02 0.0000000000000000e+00 -1.9316095180444109e-03 
3.3072414941944718e-02 0.0000000000000000e+00 -2.4648538725459139e-03 
3.3072414972261856e-02 0.0000000000000000e+00 -2.4648538377867782e-03 
3.0382520385455008e-02 0.0000000000000000e+00 -2.7788502495863245e-03 
3.0382520311973287e-02 0.0000000000000000e+00 -2.7788502794255693e-03 
2.7513914853174233e-02 0.0000000000000000e+00 -2.9238958505177592e-03 
2.7513914466059958e-02 0.0000000000000000e+00 -2.9238959501578020e-03 
2.7491988606131418e-02 0.0000000000000000e+00 -1.5674923061391394e-03 
2.7491988292747772e-02 0.0000000000000000e+00 -1.5674923343828328e-03 
2.7461658403911356e-02 0.0000000000000000e+00 -8.8955881873513387e-06 
2.7461658196110100e-02 0.0000000000000000e+00 -8.8955689187987649e-06 
2.7420379519951750e-02 0.0000000000000000e+00 1.3353931601990548e-03 
2.7420379420726379e-02 0.0000000000000000e+00 1.3353931855115456e-03 
0.0000000000000000e+00 0.0000000000000000e+00 0.0000000000000000e+00 
0.0000000000000000e+00 0.0000000000000000e+00 0.0000000000000000e+00 
1.7189929386518376e-03 0.0000000000000000e+00 -1.6555234232697579e-03 
1.7189928389911967e-03 0.0000000000000000e+00 -1.6555234284024269e-03 
5.0698505906232472e-03 0.0000000000000000e+00 -2.8532655244885821e-03 
5.0698505810460089e-03 0.0000000000000000e+00 -2.8532655260198512e-03 
9.6495199096407382e-03 0.0000000000000000e+00 -3.6186676175770922e-03 
9.6495199308478784e-03 0.0000000000000000e+00 -3.6186676036413022e-03 
1.4806249856245932e-02 0.0000000000000000e+00 -3.9703353512704148e-03 
1.4806249858229276e-02 0.0000000000000000e+00 -3.9703353436465489e-03 
1.9961852610284457e-02 0.0000000000000000e+00 -3.9795046845540636e-03 
1.9961852626063099e-02 0.0000000000000000e+00 -3.9795047013984992e-03 
2.4710803796383955e-02 0.0000000000000000e+00 -3.7442823832623947e-03 
2.4710803855434949e-02 0.0000000000000000e+00 -3.7442824092468680e-03 
2.8884924789104816e-02 0.0000000000000000e+00 -3.3583054449378594e-03 
2.8884924811169221e-02 0.0000000000000000e+00 -3.3583054496791713e-03 
3.2404931260405723e-02 0.0000000000000000e+00 -2.8460331016835964e-03 
3.2404931121098088e-02 0.0000000000000000e+00 -2.8460330807857548e-03 
3.5149951557339597e-02 0.0000000000000000e+00 -2.1375957634613791e-03 
3.5149951269381814e-02 0.0000000000000000e+00 -2.1375957490889067e-03 
3.6728098821327645e-02 0.0000000000000000e+00 -1.1746409895588062e-03 
3.6728098589321731e-02 0.0000000000000000e+00 -1.1746410064352281e-03 
3.6741956860582847e-02 0.0000000000000000e+00 -1.3786163051581640e-04 
3.6741956834063096e-02 0.0000000000000000e+00 -1.3786163810410452e-04 
3.5298985339056899e-02 0.0000000000000000e+00 6.6481552478216458e-04 
3.5298985384226683e-02 0.0000000000000000e+00 6.6481558037680805e-04 
3.3010219951401701e-02 0.0000000000000000e+00 1.1051891369322090e-03 
3.3010219876285239e-02 0.0000000000000000e+00 1.1051892265840587e-03 
3.0298398058523059e-02 0.0000000000000000e+00 1.3037424277436691e-03 
3.0298397948999068e-02 0.0000000000000000e+00 1.3037424754691299e-03 

