# vtk DataFile Version 2.0

ASCII

DATASET UNSTRUCTURED_GRID

POINTS 33 double 

-5.0000000000000003e-02  1.4999999999999997e-01  3.3333333335000000e-02
-5.0000000000000003e-02  1.4999999999999999e-01  9.9999999985000018e-02
-5.0000000000000003e-02  1.4999999999999997e-01  1.6666666665000002e-01
-5.0000000000000003e-02  1.4999999999999999e-01  2.3333333334999998e-01
-5.0000000000000003e-02  1.4999999999999997e-01  2.9999999999999993e-01
-5.0000000000000003e-02  1.4999999999999997e-01  3.6666666665000003e-01
-5.0000000000000003e-02  1.4999999999999999e-01  4.3333333335000002e-01
-5.0000000000000003e-02  1.4999999999999997e-01  5.0000000000000000e-01
-5.0000000000000003e-02  1.4999999999999999e-01  5.6666666664999987e-01
-5.0000000000000003e-02  1.4999999999999999e-01  6.3333333334999986e-01
-5.0000000000000003e-02  1.4999999999999997e-01  6.9999999999999984e-01
-5.0000000000000003e-02  1.4999999999999999e-01  7.6666666664999994e-01
-4.9999999999999996e-02  1.4999999999999999e-01  8.3333333334999982e-01
-5.0000000000000003e-02  1.4999999999999997e-01  8.9999999999999991e-01
-5.0000000000000003e-02  1.4999999999999999e-01  9.6666666664999990e-01
-3.3333333335000000e-02  1.4999999999999997e-01  9.9999999999999978e-01
0.0000000000000000e+00  1.4999999999999997e-01  1.0000000000000000e+00
3.3333333335000007e-02  1.4999999999999999e-01  1.0000000000000000e+00
5.0000000000000003e-02  1.4999999999999997e-01  3.3333333335000000e-02
5.0000000000000003e-02  1.4999999999999999e-01  9.9999999985000004e-02
5.0000000000000003e-02  1.4999999999999999e-01  1.6666666664999999e-01
5.0000000000000003e-02  1.5000000000000002e-01  2.3333333334999998e-01
5.0000000000000003e-02  1.4999999999999997e-01  2.9999999999999993e-01
5.0000000000000003e-02  1.4999999999999997e-01  3.6666666665000003e-01
5.0000000000000003e-02  1.5000000000000002e-01  4.3333333334999991e-01
5.0000000000000003e-02  1.4999999999999997e-01  5.0000000000000000e-01
5.0000000000000003e-02  1.5000000000000002e-01  5.6666666664999987e-01
5.0000000000000003e-02  1.5000000000000002e-01  6.3333333334999997e-01
5.0000000000000003e-02  1.4999999999999997e-01  6.9999999999999984e-01
5.0000000000000003e-02  1.4999999999999999e-01  7.6666666664999994e-01
5.0000000000000003e-02  1.5000000000000002e-01  8.3333333334999993e-01
5.0000000000000010e-02  1.4999999999999997e-01  8.9999999999999991e-01
5.0000000000000003e-02  1.5000000000000002e-01  9.6666666664999990e-01

CELLS 0 0


CELL_TYPES 0


POINT_DATA 33

VECTORS VertexNormals double

0.0000000000000000e+00 0.0000000000000000e+00 0.0000000000000000e+00 
0.0000000000000000e+00 0.0000000000000000e+00 0.0000000000000000e+00 
0.0000000000000000e+00 0.0000000000000000e+00 0.0000000000000000e+00 
0.0000000000000000e+00 0.0000000000000000e+00 0.0000000000000000e+00 
0.0000000000000000e+00 0.0000000000000000e+00 0.0000000000000000e+00 
0.0000000000000000e+00 0.0000000000000000e+00 0.0000000000000000e+00 
0.0000000000000000e+00 0.0000000000000000e+00 0.0000000000000000e+00 
0.0000000000000000e+00 0.0000000000000000e+00 0.0000000000000000e+00 
0.0000000000000000e+00 0.0000000000000000e+00 0.0000000000000000e+00 
0.0000000000000000e+00 0.0000000000000000e+00 0.0000000000000000e+00 
0.0000000000000000e+00 0.0000000000000000e+00 0.0000000000000000e+00 
0.0000000000000000e+00 0.0000000000000000e+00 0.0000000000000000e+00 
0.0000000000000000e+00 0.0000000000000000e+00 0.0000000000000000e+00 
0.0000000000000000e+00 0.0000000000000000e+00 0.0000000000000000e+00 
0.0000000000000000e+00 0.0000000000000000e+00 0.0000000000000000e+00 
0.0000000000000000e+00 0.0000000000000000e+00 0.0000000000000000e+00 
0.0000000000000000e+00 0.0000000000000000e+00 0.0000000000000000e+00 
0.0000000000000000e+00 0.0000000000000000e+00 0.0000000000000000e+00 
0.0000000000000000e+00 0.0000000000000000e+00 0.0000000000000000e+00 
0.0000000000000000e+00 0.0000000000000000e+00 0.0000000000000000e+00 
0.0000000000000000e+00 0.0000000000000000e+00 0.0000000000000000e+00 
0.0000000000000000e+00 0.0000000000000000e+00 0.0000000000000000e+00 
0.0000000000000000e+00 0.0000000000000000e+00 0.0000000000000000e+00 
0.0000000000000000e+00 0.0000000000000000e+00 0.0000000000000000e+00 
0.0000000000000000e+00 0.0000000000000000e+00 0.0000000000000000e+00 
0.0000000000000000e+00 0.0000000000000000e+00 0.0000000000000000e+00 
0.0000000000000000e+00 0.0000000000000000e+00 0.0000000000000000e+00 
0.0000000000000000e+00 0.0000000000000000e+00 0.0000000000000000e+00 
0.0000000000000000e+00 0.0000000000000000e+00 0.0000000000000000e+00 
0.0000000000000000e+00 0.0000000000000000e+00 0.0000000000000000e+00 
0.0000000000000000e+00 0.0000000000000000e+00 0.0000000000000000e+00 
0.0000000000000000e+00 0.0000000000000000e+00 0.0000000000000000e+00 
0.0000000000000000e+00 0.0000000000000000e+00 0.0000000000000000e+00 

VECTORS Forces0 double
2.2660309215592593e+00 2.4732819438944507e-18 -8.4518977950992474e-02 
2.2453294092483707e+00 -1.7101668611353645e-18 -1.6321100461549742e-01 
2.2219212388729859e+00 2.0333979855175920e-19 -2.2349245011686955e-01 
2.1918866370780941e+00 1.6462670036586937e-18 -2.5939968387881412e-01 
2.1530489821042815e+00 -4.5718850409212126e-18 -2.6887046352415978e-01 
2.1102479363561777e+00 -6.4011428600719631e-23 -2.4958956876833527e-01 
2.0654763445640452e+00 5.9631936785569934e-23 -2.1372002367493922e-01 
2.0140712216877001e+00 2.9744368907476486e-18 -1.7366941037847669e-01 
1.9503434781111426e+00 1.5895302434400493e-18 -1.3285604736923534e-01 
1.8686180677779114e+00 -4.3901022572560650e-24 -9.6128797233562893e-02 
1.7584819036750752e+00 9.9754105420984897e-19 -6.7051685888012608e-02 
1.6065312552363227e+00 -5.4759372691849175e-19 -4.5071043980970088e-02 
1.3894594579199779e+00 1.6094349520352990e-18 -2.9214096144289995e-02 
1.0540558041322952e+00 1.6111326336857984e-18 -1.6934440570769042e-02 
4.5275792369731849e-01 -5.1530831498492315e-24 -2.5350335280763204e-03 
3.4836219635595411e-02 9.1875829603679638e-19 1.3697738180544972e+00 
2.3181401581726803e-02 1.6036233805361833e-18 1.1759174491707942e+00 
2.2216727436176021e-02 7.9778035988088453e-19 9.5585287060691781e-01 
1.2871860162208690e+00 -1.1754943508222875e-38 -4.9349542826402672e-02 
1.2948395107143809e+00 -8.9816090280635313e-19 -9.4455170113326187e-02 
1.3088669575182765e+00 6.7672937243950112e-19 -1.3175451367096766e-01 
1.3348784754716880e+00 -2.2801023206987462e-19 -1.5774804786294197e-01 
1.3777203402442944e+00 -3.5111343299894893e-18 -1.7127016971420359e-01 
1.4374298694100418e+00 1.9450852709992963e-18 -1.6883296675135137e-01 
1.5071414648790444e+00 -6.5172187533857028e-19 -1.5464385450549550e-01 
1.5785925483048313e+00 2.5012883118978743e-21 -1.3478569351888053e-01 
1.6443962630453637e+00 -5.7807035088704720e-23 -1.1109608470977536e-01 
1.6948314501406334e+00 1.6661230430637077e-18 -8.6611306008482686e-02 
1.7241925544431307e+00 1.6618988468857546e-18 -6.5950005718336008e-02 
1.7313868268294161e+00 -1.0756061553475851e-18 -4.9909434609421870e-02 
1.7171955955360962e+00 1.3617706900054495e-18 -3.9202337276160668e-02 
1.6853768493801284e+00 1.6489949609464673e-18 -3.4125712839142681e-02 
1.6404402733991179e+00 1.6611564085792831e-18 -3.3665214507120837e-02 

