# vtk DataFile Version 2.0

ASCII

DATASET UNSTRUCTURED_GRID

POINTS 33 float 

-5.0000000000000003e-02  1.4999999999999997e-01  3.3333333335000000e-02
-5.0000000000000003e-02  1.4999999999999999e-01  9.9999999985000018e-02
-5.0000000000000003e-02  1.4999999999999997e-01  1.6666666665000002e-01
-5.0000000000000003e-02  1.4999999999999999e-01  2.3333333334999998e-01
-5.0000000000000003e-02  1.4999999999999997e-01  2.9999999999999993e-01
-5.0000000000000003e-02  1.4999999999999997e-01  3.6666666665000003e-01
-5.0000000000000003e-02  1.4999999999999999e-01  4.3333333335000002e-01
-5.0000000000000003e-02  1.4999999999999997e-01  5.0000000000000000e-01
-5.0000000000000003e-02  1.4999999999999999e-01  5.6666666664999987e-01
-5.0000000000000003e-02  1.4999999999999999e-01  6.3333333334999986e-01
-5.0000000000000003e-02  1.4999999999999997e-01  6.9999999999999984e-01
-5.0000000000000003e-02  1.4999999999999999e-01  7.6666666664999994e-01
-4.9999999999999996e-02  1.4999999999999999e-01  8.3333333334999982e-01
-5.0000000000000003e-02  1.4999999999999997e-01  8.9999999999999991e-01
-5.0000000000000003e-02  1.4999999999999999e-01  9.6666666664999990e-01
-3.3333333335000000e-02  1.4999999999999997e-01  9.9999999999999978e-01
0.0000000000000000e+00  1.4999999999999997e-01  1.0000000000000000e+00
3.3333333335000007e-02  1.4999999999999999e-01  1.0000000000000000e+00
5.0000000000000003e-02  1.4999999999999997e-01  3.3333333335000000e-02
5.0000000000000003e-02  1.4999999999999999e-01  9.9999999985000004e-02
5.0000000000000003e-02  1.4999999999999999e-01  1.6666666664999999e-01
5.0000000000000003e-02  1.5000000000000002e-01  2.3333333334999998e-01
5.0000000000000003e-02  1.4999999999999997e-01  2.9999999999999993e-01
5.0000000000000003e-02  1.4999999999999997e-01  3.6666666665000003e-01
5.0000000000000003e-02  1.5000000000000002e-01  4.3333333334999991e-01
5.0000000000000003e-02  1.4999999999999997e-01  5.0000000000000000e-01
5.0000000000000003e-02  1.5000000000000002e-01  5.6666666664999987e-01
5.0000000000000003e-02  1.5000000000000002e-01  6.3333333334999997e-01
5.0000000000000003e-02  1.4999999999999997e-01  6.9999999999999984e-01
5.0000000000000003e-02  1.4999999999999999e-01  7.6666666664999994e-01
5.0000000000000003e-02  1.5000000000000002e-01  8.3333333334999993e-01
5.0000000000000010e-02  1.4999999999999997e-01  8.9999999999999991e-01
5.0000000000000003e-02  1.5000000000000002e-01  9.6666666664999990e-01

CELLS 0 0


CELL_TYPES 0


POINT_DATA 33

VECTORS VertexNormals float

0.0000000000000000e+00 0.0000000000000000e+00 0.0000000000000000e+00 
0.0000000000000000e+00 0.0000000000000000e+00 0.0000000000000000e+00 
0.0000000000000000e+00 0.0000000000000000e+00 0.0000000000000000e+00 
0.0000000000000000e+00 0.0000000000000000e+00 0.0000000000000000e+00 
0.0000000000000000e+00 0.0000000000000000e+00 0.0000000000000000e+00 
0.0000000000000000e+00 0.0000000000000000e+00 0.0000000000000000e+00 
0.0000000000000000e+00 0.0000000000000000e+00 0.0000000000000000e+00 
0.0000000000000000e+00 0.0000000000000000e+00 0.0000000000000000e+00 
0.0000000000000000e+00 0.0000000000000000e+00 0.0000000000000000e+00 
0.0000000000000000e+00 0.0000000000000000e+00 0.0000000000000000e+00 
0.0000000000000000e+00 0.0000000000000000e+00 0.0000000000000000e+00 
0.0000000000000000e+00 0.0000000000000000e+00 0.0000000000000000e+00 
0.0000000000000000e+00 0.0000000000000000e+00 0.0000000000000000e+00 
0.0000000000000000e+00 0.0000000000000000e+00 0.0000000000000000e+00 
0.0000000000000000e+00 0.0000000000000000e+00 0.0000000000000000e+00 
0.0000000000000000e+00 0.0000000000000000e+00 0.0000000000000000e+00 
0.0000000000000000e+00 0.0000000000000000e+00 0.0000000000000000e+00 
0.0000000000000000e+00 0.0000000000000000e+00 0.0000000000000000e+00 
0.0000000000000000e+00 0.0000000000000000e+00 0.0000000000000000e+00 
0.0000000000000000e+00 0.0000000000000000e+00 0.0000000000000000e+00 
0.0000000000000000e+00 0.0000000000000000e+00 0.0000000000000000e+00 
0.0000000000000000e+00 0.0000000000000000e+00 0.0000000000000000e+00 
0.0000000000000000e+00 0.0000000000000000e+00 0.0000000000000000e+00 
0.0000000000000000e+00 0.0000000000000000e+00 0.0000000000000000e+00 
0.0000000000000000e+00 0.0000000000000000e+00 0.0000000000000000e+00 
0.0000000000000000e+00 0.0000000000000000e+00 0.0000000000000000e+00 
0.0000000000000000e+00 0.0000000000000000e+00 0.0000000000000000e+00 
0.0000000000000000e+00 0.0000000000000000e+00 0.0000000000000000e+00 
0.0000000000000000e+00 0.0000000000000000e+00 0.0000000000000000e+00 
0.0000000000000000e+00 0.0000000000000000e+00 0.0000000000000000e+00 
0.0000000000000000e+00 0.0000000000000000e+00 0.0000000000000000e+00 
0.0000000000000000e+00 0.0000000000000000e+00 0.0000000000000000e+00 
0.0000000000000000e+00 0.0000000000000000e+00 0.0000000000000000e+00 

VECTORS Forces0 float
2.6928881700844784e+00 2.6190648071922131e-18 -8.6323246013269836e-02 
2.6827799358086546e+00 -3.9923013731578532e-20 -1.9159323943706585e-01 
2.6642918328540319e+00 -6.3474019268619229e-21 -2.9620229046085145e-01 
2.6313595079412782e+00 -1.1402520448294566e-20 -3.7724466378714083e-01 
2.5833477301871857e+00 -1.6897678094602214e-18 -4.3609880641575344e-01 
2.5183428288557219e+00 1.6829004901984045e-18 -4.8085586832810667e-01 
2.4317648497855617e+00 1.6888006727203747e-18 -5.1768999089627754e-01 
2.3237438658633711e+00 -3.3421699610725075e-18 -5.4233506849599122e-01 
2.2017807127301410e+00 -4.4270787183757998e-18 -5.4589581401322895e-01 
2.0742522572856750e+00 2.5031836575167968e-18 -5.2323123380431658e-01 
1.9408747011825809e+00 5.4036350922673502e-18 -4.8079738228932339e-01 
1.7828533203758978e+00 1.4735271656411191e-22 -4.3018924476247972e-01 
1.5754725355635708e+00 1.6042599585721868e-18 -3.7213985515192127e-01 
1.2888349615632875e+00 -1.8182966197342020e-22 -2.9688988084226331e-01 
8.3617898021524784e-01 -2.3202220084434096e-18 -1.8846363274453856e-01 
1.8769666042100083e-01 3.1845961465418658e-21 7.9349721021149289e-01 
1.3863016063318639e-01 8.1339482334869662e-19 5.9724495892096463e-01 
9.8220843532676003e-02 -1.6335953423615159e-21 4.2339956452767946e-01 
1.2805469204847100e-01 1.5253696604745765e-18 -3.8945526163316371e-03 
1.2447826624783528e-01 1.5392618475651673e-18 -8.6691399603280005e-03 
1.2684976728106814e-01 3.1960083299711421e-18 -1.3512412162391249e-02 
1.3872261280782130e-01 -1.9401540712131055e-19 -1.8900452777354547e-02 
1.6132336723341784e-01 1.9692851495776351e-24 -2.5859595743836530e-02 
1.9289342873774798e-01 -1.5879937018572134e-18 -3.5105483659435374e-02 
2.3082968769235354e-01 1.5941161272530259e-18 -4.7098117258795605e-02 
2.7545115095003464e-01 1.9919051799962644e-18 -6.1992420883587224e-02 
3.2939684204070002e-01 1.6251339962131894e-18 -7.9160328767683391e-02 
3.9215581650427817e-01 1.6449919697412060e-18 -9.6239740279418354e-02 
4.5558302100108156e-01 1.6572027716477557e-18 -1.1021350238065965e-01 
5.0882163251248047e-01 1.6666921201629298e-18 -1.2036036415740516e-01 
5.4569622551912000e-01 3.1825313734728952e-18 -1.2691572430491233e-01 
5.6547941990198280e-01 -1.6955414870839749e-18 -1.2915451417776197e-01 
5.6965321871369579e-01 -1.5796010121102740e-18 -1.2906830785847376e-01 

