# vtk DataFile Version 2.0

ASCII

DATASET UNSTRUCTURED_GRID

POINTS 33 double 

-5.0000000000000003e-02  1.4999999999999997e-01  3.3333333335000000e-02
-5.0000000000000003e-02  1.4999999999999999e-01  9.9999999985000018e-02
-5.0000000000000003e-02  1.4999999999999997e-01  1.6666666665000002e-01
-5.0000000000000003e-02  1.4999999999999999e-01  2.3333333334999998e-01
-5.0000000000000003e-02  1.4999999999999997e-01  2.9999999999999993e-01
-5.0000000000000003e-02  1.4999999999999997e-01  3.6666666665000003e-01
-5.0000000000000003e-02  1.4999999999999999e-01  4.3333333335000002e-01
-5.0000000000000003e-02  1.4999999999999997e-01  5.0000000000000000e-01
-5.0000000000000003e-02  1.4999999999999999e-01  5.6666666664999987e-01
-5.0000000000000003e-02  1.4999999999999999e-01  6.3333333334999986e-01
-5.0000000000000003e-02  1.4999999999999997e-01  6.9999999999999984e-01
-5.0000000000000003e-02  1.4999999999999999e-01  7.6666666664999994e-01
-4.9999999999999996e-02  1.4999999999999999e-01  8.3333333334999982e-01
-5.0000000000000003e-02  1.4999999999999997e-01  8.9999999999999991e-01
-5.0000000000000003e-02  1.4999999999999999e-01  9.6666666664999990e-01
-3.3333333335000000e-02  1.4999999999999997e-01  9.9999999999999978e-01
0.0000000000000000e+00  1.4999999999999997e-01  1.0000000000000000e+00
3.3333333335000007e-02  1.4999999999999999e-01  1.0000000000000000e+00
5.0000000000000003e-02  1.4999999999999997e-01  3.3333333335000000e-02
5.0000000000000003e-02  1.4999999999999999e-01  9.9999999985000004e-02
5.0000000000000003e-02  1.4999999999999999e-01  1.6666666664999999e-01
5.0000000000000003e-02  1.5000000000000002e-01  2.3333333334999998e-01
5.0000000000000003e-02  1.4999999999999997e-01  2.9999999999999993e-01
5.0000000000000003e-02  1.4999999999999997e-01  3.6666666665000003e-01
5.0000000000000003e-02  1.5000000000000002e-01  4.3333333334999991e-01
5.0000000000000003e-02  1.4999999999999997e-01  5.0000000000000000e-01
5.0000000000000003e-02  1.5000000000000002e-01  5.6666666664999987e-01
5.0000000000000003e-02  1.5000000000000002e-01  6.3333333334999997e-01
5.0000000000000003e-02  1.4999999999999997e-01  6.9999999999999984e-01
5.0000000000000003e-02  1.4999999999999999e-01  7.6666666664999994e-01
5.0000000000000003e-02  1.5000000000000002e-01  8.3333333334999993e-01
5.0000000000000010e-02  1.4999999999999997e-01  8.9999999999999991e-01
5.0000000000000003e-02  1.5000000000000002e-01  9.6666666664999990e-01

CELLS 0 0


CELL_TYPES 0


POINT_DATA 33

VECTORS VertexNormals double

0.0000000000000000e+00 0.0000000000000000e+00 0.0000000000000000e+00 
0.0000000000000000e+00 0.0000000000000000e+00 0.0000000000000000e+00 
0.0000000000000000e+00 0.0000000000000000e+00 0.0000000000000000e+00 
0.0000000000000000e+00 0.0000000000000000e+00 0.0000000000000000e+00 
0.0000000000000000e+00 0.0000000000000000e+00 0.0000000000000000e+00 
0.0000000000000000e+00 0.0000000000000000e+00 0.0000000000000000e+00 
0.0000000000000000e+00 0.0000000000000000e+00 0.0000000000000000e+00 
0.0000000000000000e+00 0.0000000000000000e+00 0.0000000000000000e+00 
0.0000000000000000e+00 0.0000000000000000e+00 0.0000000000000000e+00 
0.0000000000000000e+00 0.0000000000000000e+00 0.0000000000000000e+00 
0.0000000000000000e+00 0.0000000000000000e+00 0.0000000000000000e+00 
0.0000000000000000e+00 0.0000000000000000e+00 0.0000000000000000e+00 
0.0000000000000000e+00 0.0000000000000000e+00 0.0000000000000000e+00 
0.0000000000000000e+00 0.0000000000000000e+00 0.0000000000000000e+00 
0.0000000000000000e+00 0.0000000000000000e+00 0.0000000000000000e+00 
0.0000000000000000e+00 0.0000000000000000e+00 0.0000000000000000e+00 
0.0000000000000000e+00 0.0000000000000000e+00 0.0000000000000000e+00 
0.0000000000000000e+00 0.0000000000000000e+00 0.0000000000000000e+00 
0.0000000000000000e+00 0.0000000000000000e+00 0.0000000000000000e+00 
0.0000000000000000e+00 0.0000000000000000e+00 0.0000000000000000e+00 
0.0000000000000000e+00 0.0000000000000000e+00 0.0000000000000000e+00 
0.0000000000000000e+00 0.0000000000000000e+00 0.0000000000000000e+00 
0.0000000000000000e+00 0.0000000000000000e+00 0.0000000000000000e+00 
0.0000000000000000e+00 0.0000000000000000e+00 0.0000000000000000e+00 
0.0000000000000000e+00 0.0000000000000000e+00 0.0000000000000000e+00 
0.0000000000000000e+00 0.0000000000000000e+00 0.0000000000000000e+00 
0.0000000000000000e+00 0.0000000000000000e+00 0.0000000000000000e+00 
0.0000000000000000e+00 0.0000000000000000e+00 0.0000000000000000e+00 
0.0000000000000000e+00 0.0000000000000000e+00 0.0000000000000000e+00 
0.0000000000000000e+00 0.0000000000000000e+00 0.0000000000000000e+00 
0.0000000000000000e+00 0.0000000000000000e+00 0.0000000000000000e+00 
0.0000000000000000e+00 0.0000000000000000e+00 0.0000000000000000e+00 
0.0000000000000000e+00 0.0000000000000000e+00 0.0000000000000000e+00 

VECTORS Forces0 double
4.3785121770036426e+00 5.2897245787002938e-38 -2.5696916409755355e-01 
4.3233828360881548e+00 2.8287898432756970e-21 -6.3781185723880718e-01 
4.2048423733983666e+00 1.8414514356993213e-18 -9.9934450294830646e-01 
4.0387789440180049e+00 -1.2730227149806557e-17 -1.2619732986244978e+00 
3.8600032432064273e+00 1.8957246708954430e-21 -1.4341173706227257e+00 
3.6856620051547582e+00 2.7233725807562403e-20 -1.5424842627882924e+00 
3.5199751621969178e+00 -1.1959011879051713e-17 -1.6079282349316146e+00 
3.3658177486313323e+00 -9.9443795290731197e-18 -1.6407549640608492e+00 
3.2204840232627374e+00 -4.6475200942726811e-18 -1.6488972582173500e+00 
3.0771557402662078e+00 3.3143632398197906e-18 -1.6404474264133988e+00 
2.9293610067315301e+00 -8.9659515076645276e-18 -1.6176086314212368e+00 
2.7734620202631022e+00 1.6326229728753290e-18 -1.5760676509663791e+00 
2.6050509794237056e+00 1.6231486688343308e-17 -1.5113455788584984e+00 
2.4141269532348177e+00 1.1887894700504771e-20 -1.4165173458219225e+00 
2.1655670487646574e+00 1.5021324240599512e-17 -1.2777854238753561e+00 
-1.8199446404817365e-01 4.2990911885791851e-21 -3.0912746562326826e-01 
-2.8592532548812871e-01 1.7598962492483612e-18 -4.8128018697255148e-01 
-3.8084786326535075e-01 -1.6117467073627659e-22 -6.3930180129610559e-01 
-1.7282848476510426e+00 0.0000000000000000e+00 1.0270372832324696e-01 
-1.7222490740415242e+00 -1.1158127259359857e-18 2.5525100336295320e-01 
-1.7167687175613926e+00 5.8271104744043175e-22 4.1118133685456698e-01 
-1.7131406791419672e+00 1.8149412557333800e-20 5.3783970511969581e-01 
-1.7102317125687716e+00 8.1539398487137778e-18 6.3803859310579736e-01 
-1.7060279545109691e+00 0.0000000000000000e+00 7.1688316997155166e-01 
-1.7011456617581835e+00 1.5622562943695382e-18 7.8004381074832174e-01 
-1.6946530209475317e+00 -8.3467538462654897e-18 8.2959166346861690e-01 
-1.6857930456593593e+00 6.7887513406453033e-18 8.6716319874034875e-01 
-1.6731210197791704e+00 -3.5975289004467807e-18 8.9639659071022160e-01 
-1.6562408503603003e+00 1.6125416569210597e-18 9.1985924930121943e-01 
-1.6367549880034429e+00 -1.4054560849247831e-20 9.3626639199421702e-01 
-1.6154817273477573e+00 0.0000000000000000e+00 9.4420008842011860e-01 
-1.5921634349671154e+00 5.0170167812732730e-18 9.4249826952570959e-01 
-1.5686084422000992e+00 2.0958397461818403e-18 9.3472008571098975e-01 

