# vtk DataFile Version 2.0

ASCII

DATASET UNSTRUCTURED_GRID

POINTS 33 double 

-5.0000000000000003e-02  1.4999999999999997e-01  3.3333333335000000e-02
-5.0000000000000003e-02  1.4999999999999999e-01  9.9999999985000018e-02
-5.0000000000000003e-02  1.4999999999999997e-01  1.6666666665000002e-01
-5.0000000000000003e-02  1.4999999999999999e-01  2.3333333334999998e-01
-5.0000000000000003e-02  1.4999999999999997e-01  2.9999999999999993e-01
-5.0000000000000003e-02  1.4999999999999997e-01  3.6666666665000003e-01
-5.0000000000000003e-02  1.4999999999999999e-01  4.3333333335000002e-01
-5.0000000000000003e-02  1.4999999999999997e-01  5.0000000000000000e-01
-5.0000000000000003e-02  1.4999999999999999e-01  5.6666666664999987e-01
-5.0000000000000003e-02  1.4999999999999999e-01  6.3333333334999986e-01
-5.0000000000000003e-02  1.4999999999999997e-01  6.9999999999999984e-01
-5.0000000000000003e-02  1.4999999999999999e-01  7.6666666664999994e-01
-4.9999999999999996e-02  1.4999999999999999e-01  8.3333333334999982e-01
-5.0000000000000003e-02  1.4999999999999997e-01  8.9999999999999991e-01
-5.0000000000000003e-02  1.4999999999999999e-01  9.6666666664999990e-01
-3.3333333335000000e-02  1.4999999999999997e-01  9.9999999999999978e-01
0.0000000000000000e+00  1.4999999999999997e-01  1.0000000000000000e+00
3.3333333335000007e-02  1.4999999999999999e-01  1.0000000000000000e+00
5.0000000000000003e-02  1.4999999999999997e-01  3.3333333335000000e-02
5.0000000000000003e-02  1.4999999999999999e-01  9.9999999985000004e-02
5.0000000000000003e-02  1.4999999999999999e-01  1.6666666664999999e-01
5.0000000000000003e-02  1.5000000000000002e-01  2.3333333334999998e-01
5.0000000000000003e-02  1.4999999999999997e-01  2.9999999999999993e-01
5.0000000000000003e-02  1.4999999999999997e-01  3.6666666665000003e-01
5.0000000000000003e-02  1.5000000000000002e-01  4.3333333334999991e-01
5.0000000000000003e-02  1.4999999999999997e-01  5.0000000000000000e-01
5.0000000000000003e-02  1.5000000000000002e-01  5.6666666664999987e-01
5.0000000000000003e-02  1.5000000000000002e-01  6.3333333334999997e-01
5.0000000000000003e-02  1.4999999999999997e-01  6.9999999999999984e-01
5.0000000000000003e-02  1.4999999999999999e-01  7.6666666664999994e-01
5.0000000000000003e-02  1.5000000000000002e-01  8.3333333334999993e-01
5.0000000000000010e-02  1.4999999999999997e-01  8.9999999999999991e-01
5.0000000000000003e-02  1.5000000000000002e-01  9.6666666664999990e-01

CELLS 0 0


CELL_TYPES 0


POINT_DATA 33

VECTORS VertexNormals double

0.0000000000000000e+00 0.0000000000000000e+00 0.0000000000000000e+00 
0.0000000000000000e+00 0.0000000000000000e+00 0.0000000000000000e+00 
0.0000000000000000e+00 0.0000000000000000e+00 0.0000000000000000e+00 
0.0000000000000000e+00 0.0000000000000000e+00 0.0000000000000000e+00 
0.0000000000000000e+00 0.0000000000000000e+00 0.0000000000000000e+00 
0.0000000000000000e+00 0.0000000000000000e+00 0.0000000000000000e+00 
0.0000000000000000e+00 0.0000000000000000e+00 0.0000000000000000e+00 
0.0000000000000000e+00 0.0000000000000000e+00 0.0000000000000000e+00 
0.0000000000000000e+00 0.0000000000000000e+00 0.0000000000000000e+00 
0.0000000000000000e+00 0.0000000000000000e+00 0.0000000000000000e+00 
0.0000000000000000e+00 0.0000000000000000e+00 0.0000000000000000e+00 
0.0000000000000000e+00 0.0000000000000000e+00 0.0000000000000000e+00 
0.0000000000000000e+00 0.0000000000000000e+00 0.0000000000000000e+00 
0.0000000000000000e+00 0.0000000000000000e+00 0.0000000000000000e+00 
0.0000000000000000e+00 0.0000000000000000e+00 0.0000000000000000e+00 
0.0000000000000000e+00 0.0000000000000000e+00 0.0000000000000000e+00 
0.0000000000000000e+00 0.0000000000000000e+00 0.0000000000000000e+00 
0.0000000000000000e+00 0.0000000000000000e+00 0.0000000000000000e+00 
0.0000000000000000e+00 0.0000000000000000e+00 0.0000000000000000e+00 
0.0000000000000000e+00 0.0000000000000000e+00 0.0000000000000000e+00 
0.0000000000000000e+00 0.0000000000000000e+00 0.0000000000000000e+00 
0.0000000000000000e+00 0.0000000000000000e+00 0.0000000000000000e+00 
0.0000000000000000e+00 0.0000000000000000e+00 0.0000000000000000e+00 
0.0000000000000000e+00 0.0000000000000000e+00 0.0000000000000000e+00 
0.0000000000000000e+00 0.0000000000000000e+00 0.0000000000000000e+00 
0.0000000000000000e+00 0.0000000000000000e+00 0.0000000000000000e+00 
0.0000000000000000e+00 0.0000000000000000e+00 0.0000000000000000e+00 
0.0000000000000000e+00 0.0000000000000000e+00 0.0000000000000000e+00 
0.0000000000000000e+00 0.0000000000000000e+00 0.0000000000000000e+00 
0.0000000000000000e+00 0.0000000000000000e+00 0.0000000000000000e+00 
0.0000000000000000e+00 0.0000000000000000e+00 0.0000000000000000e+00 
0.0000000000000000e+00 0.0000000000000000e+00 0.0000000000000000e+00 
0.0000000000000000e+00 0.0000000000000000e+00 0.0000000000000000e+00 

VECTORS Forces0 double
2.2711339493725351e+00 1.7036035284657081e-18 -5.8817718248421171e-02 
2.2555527935223720e+00 -3.9460564755386849e-39 -1.1017501862541169e-01 
2.2318275613639345e+00 7.0529661049337250e-38 -1.4756146946947776e-01 
2.2013571025870475e+00 1.7997475738341491e-18 -1.6208443344459356e-01 
2.1667388398002001e+00 -3.0954771034231486e-18 -1.5891971741922159e-01 
2.1275335352347291e+00 3.0616951239216879e-18 -1.4254762070628632e-01 
2.0828074926881257e+00 -3.7756533392980591e-21 -1.1718022129922664e-01 
2.0302032655080406e+00 1.6026914635007830e-18 -8.9655992010105240e-02 
1.9650692428683774e+00 -6.7047427663865282e-19 -6.3177631333007064e-02 
1.8840460402829766e+00 1.5917479945901699e-18 -3.5106533986320021e-02 
1.7856417114497698e+00 3.8278357628364712e-20 7.4221381508531373e-04 
1.6582476028466380e+00 -5.6907273115008980e-22 3.7318421696317869e-02 
1.4624308262361319e+00 -1.1260713877869020e-21 5.7350447242321162e-02 
1.1218993121784242e+00 1.0164933704044113e-22 5.4256291000100605e-02 
4.5285694465134324e-01 1.7905418774558588e-18 2.7318235942949069e-02 
-6.4043728822786111e-02 7.9544209284566460e-19 1.6458245267589202e+00 
-6.5474319762829608e-02 -1.0474766255107251e-18 1.4501006772891634e+00 
-4.7017920016366004e-02 -8.0694880010816092e-19 1.1675091785660006e+00 
1.7170966667428935e+00 1.2505523128172145e-21 -4.3760690527829813e-02 
1.7274578525581137e+00 -1.3103620368365801e-22 -8.4796040994919428e-02 
1.7449018964309648e+00 -3.2135491555874048e-18 -1.1555613340217813e-01 
1.7726138896165673e+00 -1.6257715073598580e-18 -1.3012578343015299e-01 
1.8126266091645806e+00 1.6410068058837208e-18 -1.3246220068234971e-01 
1.8662616493899467e+00 -3.3050015828881477e-18 -1.2443894323436343e-01 
1.9310051793152441e+00 1.2957920393437974e-18 -1.0788257759610106e-01 
2.0008769901632504e+00 1.7949379121677367e-24 -8.7990504105379203e-02 
2.0719969759067132e+00 2.3586650737953351e-18 -6.6499028155957901e-02 
2.1407556802896459e+00 1.3135986080831159e-18 -4.0127545322151820e-02 
2.1955817677110616e+00 2.5467029606721721e-23 -8.2930945703180853e-06 
2.2120478854100103e+00 -3.6905174502022101e-19 4.7368178729163421e-02 
2.1749895557493115e+00 2.3890112241472197e-18 8.1003082726302272e-02 
2.0957815332101855e+00 1.6436095126822195e-18 9.2980133345300212e-02 
1.9934558086239182e+00 9.4982296797007700e-19 8.8269344364349481e-02 

