# vtk DataFile Version 2.0

ASCII

DATASET UNSTRUCTURED_GRID

POINTS 68 float 

-5.0000000000000003e-02  2.9999999999999999e-01  0.0000000000000000e+00
-5.0000000000000003e-02  2.9999999999999999e-01  6.6666666669999999e-02
-5.0000000000000003e-02  0.0000000000000000e+00  6.6666666669999999e-02
-5.0000000000000003e-02  0.0000000000000000e+00  0.0000000000000000e+00
-5.0000000000000003e-02  2.9999999999999999e-01  1.3333333330000000e-01
-5.0000000000000003e-02  0.0000000000000000e+00  1.3333333330000000e-01
-5.0000000000000003e-02  2.9999999999999999e-01  2.0000000000000001e-01
-5.0000000000000003e-02  0.0000000000000000e+00  2.0000000000000001e-01
-5.0000000000000003e-02  2.9999999999999999e-01  2.6666666670000000e-01
-5.0000000000000003e-02  0.0000000000000000e+00  2.6666666670000000e-01
-5.0000000000000003e-02  2.9999999999999999e-01  3.3333333329999998e-01
-5.0000000000000003e-02  0.0000000000000000e+00  3.3333333329999998e-01
-5.0000000000000003e-02  2.9999999999999999e-01  4.0000000000000002e-01
-5.0000000000000003e-02  0.0000000000000000e+00  4.0000000000000002e-01
-5.0000000000000003e-02  2.9999999999999999e-01  4.6666666670000001e-01
-5.0000000000000003e-02  0.0000000000000000e+00  4.6666666670000001e-01
-5.0000000000000003e-02  2.9999999999999999e-01  5.3333333329999999e-01
-5.0000000000000003e-02  0.0000000000000000e+00  5.3333333329999999e-01
-5.0000000000000003e-02  2.9999999999999999e-01  5.9999999999999998e-01
-5.0000000000000003e-02  0.0000000000000000e+00  5.9999999999999998e-01
-5.0000000000000003e-02  2.9999999999999999e-01  6.6666666669999997e-01
-5.0000000000000003e-02  0.0000000000000000e+00  6.6666666669999997e-01
-5.0000000000000003e-02  2.9999999999999999e-01  7.3333333329999995e-01
-5.0000000000000003e-02  0.0000000000000000e+00  7.3333333329999995e-01
-5.0000000000000003e-02  2.9999999999999999e-01  8.0000000000000004e-01
-5.0000000000000003e-02  0.0000000000000000e+00  8.0000000000000004e-01
-5.0000000000000003e-02  2.9999999999999999e-01  8.6666666670000003e-01
-5.0000000000000003e-02  0.0000000000000000e+00  8.6666666670000003e-01
-5.0000000000000003e-02  2.9999999999999999e-01  9.3333333330000001e-01
-5.0000000000000003e-02  0.0000000000000000e+00  9.3333333330000001e-01
-5.0000000000000003e-02  2.9999999999999999e-01  1.0000000000000000e+00
-5.0000000000000003e-02  0.0000000000000000e+00  1.0000000000000000e+00
-1.6666666670000000e-02  2.9999999999999999e-01  1.0000000000000000e+00
-1.6666666670000000e-02  0.0000000000000000e+00  1.0000000000000000e+00
1.6666666670000000e-02  2.9999999999999999e-01  1.0000000000000000e+00
1.6666666670000000e-02  0.0000000000000000e+00  1.0000000000000000e+00
5.0000000000000003e-02  2.9999999999999999e-01  1.0000000000000000e+00
5.0000000000000003e-02  0.0000000000000000e+00  1.0000000000000000e+00
5.0000000000000003e-02  2.9999999999999999e-01  0.0000000000000000e+00
5.0000000000000003e-02  0.0000000000000000e+00  0.0000000000000000e+00
5.0000000000000003e-02  0.0000000000000000e+00  6.6666666669999999e-02
5.0000000000000003e-02  2.9999999999999999e-01  6.6666666669999999e-02
5.0000000000000003e-02  0.0000000000000000e+00  1.3333333330000000e-01
5.0000000000000003e-02  2.9999999999999999e-01  1.3333333330000000e-01
5.0000000000000003e-02  0.0000000000000000e+00  2.0000000000000001e-01
5.0000000000000003e-02  2.9999999999999999e-01  2.0000000000000001e-01
5.0000000000000003e-02  0.0000000000000000e+00  2.6666666670000000e-01
5.0000000000000003e-02  2.9999999999999999e-01  2.6666666670000000e-01
5.0000000000000003e-02  0.0000000000000000e+00  3.3333333329999998e-01
5.0000000000000003e-02  2.9999999999999999e-01  3.3333333329999998e-01
5.0000000000000003e-02  0.0000000000000000e+00  4.0000000000000002e-01
5.0000000000000003e-02  2.9999999999999999e-01  4.0000000000000002e-01
5.0000000000000003e-02  0.0000000000000000e+00  4.6666666670000001e-01
5.0000000000000003e-02  2.9999999999999999e-01  4.6666666670000001e-01
5.0000000000000003e-02  0.0000000000000000e+00  5.3333333329999999e-01
5.0000000000000003e-02  2.9999999999999999e-01  5.3333333329999999e-01
5.0000000000000003e-02  0.0000000000000000e+00  5.9999999999999998e-01
5.0000000000000003e-02  2.9999999999999999e-01  5.9999999999999998e-01
5.0000000000000003e-02  0.0000000000000000e+00  6.6666666669999997e-01
5.0000000000000003e-02  2.9999999999999999e-01  6.6666666669999997e-01
5.0000000000000003e-02  0.0000000000000000e+00  7.3333333329999995e-01
5.0000000000000003e-02  2.9999999999999999e-01  7.3333333329999995e-01
5.0000000000000003e-02  0.0000000000000000e+00  8.0000000000000004e-01
5.0000000000000003e-02  2.9999999999999999e-01  8.0000000000000004e-01
5.0000000000000003e-02  0.0000000000000000e+00  8.6666666670000003e-01
5.0000000000000003e-02  2.9999999999999999e-01  8.6666666670000003e-01
5.0000000000000003e-02  0.0000000000000000e+00  9.3333333330000001e-01
5.0000000000000003e-02  2.9999999999999999e-01  9.3333333330000001e-01

CELLS 0 0


CELL_TYPES 0


POINT_DATA 68

VECTORS VertexNormals float

0.0000000000000000e+00 0.0000000000000000e+00 0.0000000000000000e+00 
0.0000000000000000e+00 0.0000000000000000e+00 0.0000000000000000e+00 
0.0000000000000000e+00 0.0000000000000000e+00 0.0000000000000000e+00 
0.0000000000000000e+00 0.0000000000000000e+00 0.0000000000000000e+00 
0.0000000000000000e+00 0.0000000000000000e+00 0.0000000000000000e+00 
0.0000000000000000e+00 0.0000000000000000e+00 0.0000000000000000e+00 
0.0000000000000000e+00 0.0000000000000000e+00 0.0000000000000000e+00 
0.0000000000000000e+00 0.0000000000000000e+00 0.0000000000000000e+00 
0.0000000000000000e+00 0.0000000000000000e+00 0.0000000000000000e+00 
0.0000000000000000e+00 0.0000000000000000e+00 0.0000000000000000e+00 
0.0000000000000000e+00 0.0000000000000000e+00 0.0000000000000000e+00 
0.0000000000000000e+00 0.0000000000000000e+00 0.0000000000000000e+00 
0.0000000000000000e+00 0.0000000000000000e+00 0.0000000000000000e+00 
0.0000000000000000e+00 0.0000000000000000e+00 0.0000000000000000e+00 
0.0000000000000000e+00 0.0000000000000000e+00 0.0000000000000000e+00 
0.0000000000000000e+00 0.0000000000000000e+00 0.0000000000000000e+00 
0.0000000000000000e+00 0.0000000000000000e+00 0.0000000000000000e+00 
0.0000000000000000e+00 0.0000000000000000e+00 0.0000000000000000e+00 
0.0000000000000000e+00 0.0000000000000000e+00 0.0000000000000000e+00 
0.0000000000000000e+00 0.0000000000000000e+00 0.0000000000000000e+00 
0.0000000000000000e+00 0.0000000000000000e+00 0.0000000000000000e+00 
0.0000000000000000e+00 0.0000000000000000e+00 0.0000000000000000e+00 
0.0000000000000000e+00 0.0000000000000000e+00 0.0000000000000000e+00 
0.0000000000000000e+00 0.0000000000000000e+00 0.0000000000000000e+00 
0.0000000000000000e+00 0.0000000000000000e+00 0.0000000000000000e+00 
0.0000000000000000e+00 0.0000000000000000e+00 0.0000000000000000e+00 
0.0000000000000000e+00 0.0000000000000000e+00 0.0000000000000000e+00 
0.0000000000000000e+00 0.0000000000000000e+00 0.0000000000000000e+00 
0.0000000000000000e+00 0.0000000000000000e+00 0.0000000000000000e+00 
0.0000000000000000e+00 0.0000000000000000e+00 0.0000000000000000e+00 
0.0000000000000000e+00 0.0000000000000000e+00 0.0000000000000000e+00 
0.0000000000000000e+00 0.0000000000000000e+00 0.0000000000000000e+00 
0.0000000000000000e+00 0.0000000000000000e+00 0.0000000000000000e+00 
0.0000000000000000e+00 0.0000000000000000e+00 0.0000000000000000e+00 
0.0000000000000000e+00 0.0000000000000000e+00 0.0000000000000000e+00 
0.0000000000000000e+00 0.0000000000000000e+00 0.0000000000000000e+00 
0.0000000000000000e+00 0.0000000000000000e+00 0.0000000000000000e+00 
0.0000000000000000e+00 0.0000000000000000e+00 0.0000000000000000e+00 
0.0000000000000000e+00 0.0000000000000000e+00 0.0000000000000000e+00 
0.0000000000000000e+00 0.0000000000000000e+00 0.0000000000000000e+00 
0.0000000000000000e+00 0.0000000000000000e+00 0.0000000000000000e+00 
0.0000000000000000e+00 0.0000000000000000e+00 0.0000000000000000e+00 
0.0000000000000000e+00 0.0000000000000000e+00 0.0000000000000000e+00 
0.0000000000000000e+00 0.0000000000000000e+00 0.0000000000000000e+00 
0.0000000000000000e+00 0.0000000000000000e+00 0.0000000000000000e+00 
0.0000000000000000e+00 0.0000000000000000e+00 0.0000000000000000e+00 
0.0000000000000000e+00 0.0000000000000000e+00 0.0000000000000000e+00 
0.0000000000000000e+00 0.0000000000000000e+00 0.0000000000000000e+00 
0.0000000000000000e+00 0.0000000000000000e+00 0.0000000000000000e+00 
0.0000000000000000e+00 0.0000000000000000e+00 0.0000000000000000e+00 
0.0000000000000000e+00 0.0000000000000000e+00 0.0000000000000000e+00 
0.0000000000000000e+00 0.0000000000000000e+00 0.0000000000000000e+00 
0.0000000000000000e+00 0.0000000000000000e+00 0.0000000000000000e+00 
0.0000000000000000e+00 0.0000000000000000e+00 0.0000000000000000e+00 
0.0000000000000000e+00 0.0000000000000000e+00 0.0000000000000000e+00 
0.0000000000000000e+00 0.0000000000000000e+00 0.0000000000000000e+00 
0.0000000000000000e+00 0.0000000000000000e+00 0.0000000000000000e+00 
0.0000000000000000e+00 0.0000000000000000e+00 0.0000000000000000e+00 
0.0000000000000000e+00 0.0000000000000000e+00 0.0000000000000000e+00 
0.0000000000000000e+00 0.0000000000000000e+00 0.0000000000000000e+00 
0.0000000000000000e+00 0.0000000000000000e+00 0.0000000000000000e+00 
0.0000000000000000e+00 0.0000000000000000e+00 0.0000000000000000e+00 
0.0000000000000000e+00 0.0000000000000000e+00 0.0000000000000000e+00 
0.0000000000000000e+00 0.0000000000000000e+00 0.0000000000000000e+00 
0.0000000000000000e+00 0.0000000000000000e+00 0.0000000000000000e+00 
0.0000000000000000e+00 0.0000000000000000e+00 0.0000000000000000e+00 
0.0000000000000000e+00 0.0000000000000000e+00 0.0000000000000000e+00 
0.0000000000000000e+00 0.0000000000000000e+00 0.0000000000000000e+00 

VECTORS Displacements0 float
0.0000000000000000e+00 0.0000000000000000e+00 0.0000000000000000e+00 
3.0716989495635583e-03 0.0000000000000000e+00 2.6970682235871856e-03 
3.0716989193801995e-03 0.0000000000000000e+00 2.6970682173180472e-03 
0.0000000000000000e+00 0.0000000000000000e+00 0.0000000000000000e+00 
9.0895606043617221e-03 0.0000000000000000e+00 4.3198951491433615e-03 
9.0895605096961846e-03 0.0000000000000000e+00 4.3198951725314742e-03 
1.6921446536301253e-02 0.0000000000000000e+00 4.8384821224268810e-03 
1.6921446464806384e-02 0.0000000000000000e+00 4.8384821734579735e-03 
2.5244587741062301e-02 0.0000000000000000e+00 4.6036328711798373e-03 
2.5244587733553668e-02 0.0000000000000000e+00 4.6036329040434996e-03 
3.3476197718245240e-02 0.0000000000000000e+00 4.0375960702605405e-03 
3.3476197712889746e-02 0.0000000000000000e+00 4.0375960623502752e-03 
4.1435338633777685e-02 0.0000000000000000e+00 3.3459600379278105e-03 
4.1435338561146784e-02 0.0000000000000000e+00 3.3459600067022423e-03 
4.9033120767599823e-02 0.0000000000000000e+00 2.5619980866250294e-03 
4.9033120654849618e-02 0.0000000000000000e+00 2.5619980642223048e-03 
5.6054827494103066e-02 0.0000000000000000e+00 1.6814781692526121e-03 
5.6054827439107148e-02 0.0000000000000000e+00 1.6814781658773858e-03 
6.2244928758900746e-02 0.0000000000000000e+00 7.8249735709480300e-04 
6.2244928791387412e-02 0.0000000000000000e+00 7.8249735613223964e-04 
6.7559688915957941e-02 0.0000000000000000e+00 1.2648449943773732e-06 
6.7559688953983676e-02 0.0000000000000000e+00 1.2648391048493586e-06 
7.2179864225470014e-02 0.0000000000000000e+00 -6.0415796381043264e-04 
7.2179864214340458e-02 0.0000000000000000e+00 -6.0415796049607950e-04 
7.6306592948562568e-02 0.0000000000000000e+00 -1.0340711237968644e-03 
7.6306592937940190e-02 0.0000000000000000e+00 -1.0340711063691215e-03 
8.0144018270031703e-02 0.0000000000000000e+00 -1.2996403709475872e-03 
8.0144018292004723e-02 0.0000000000000000e+00 -1.2996403583729393e-03 
8.3862501841936693e-02 0.0000000000000000e+00 -1.4477369838368972e-03 
8.3862501800994499e-02 0.0000000000000000e+00 -1.4477369919531635e-03 
8.7593467108907919e-02 0.0000000000000000e+00 -1.5533762011305059e-03 
8.7593466899667904e-02 0.0000000000000000e+00 -1.5533762213924100e-03 
8.7547372465647283e-02 0.0000000000000000e+00 -3.4700766780068372e-03 
8.7547372298058188e-02 0.0000000000000000e+00 -3.4700766742948065e-03 
8.7500374479757420e-02 0.0000000000000000e+00 -5.2455328548201381e-03 
8.7500374370055103e-02 0.0000000000000000e+00 -5.2455328366978722e-03 
8.7433876234179003e-02 0.0000000000000000e+00 -7.1718961879836118e-03 
8.7433876182638370e-02 0.0000000000000000e+00 -7.1718961731104813e-03 
0.0000000000000000e+00 0.0000000000000000e+00 0.0000000000000000e+00 
0.0000000000000000e+00 0.0000000000000000e+00 0.0000000000000000e+00 
2.9054324256086827e-03 0.0000000000000000e+00 -3.0335528433552174e-03 
2.9054323684509029e-03 0.0000000000000000e+00 -3.0335528191339734e-03 
8.6228166769108331e-03 0.0000000000000000e+00 -5.2841326298691182e-03 
8.6228166719871900e-03 0.0000000000000000e+00 -5.2841326301069740e-03 
1.6248787184352766e-02 0.0000000000000000e+00 -6.7255708326418662e-03 
1.6248787202856989e-02 0.0000000000000000e+00 -6.7255708235324230e-03 
2.4501675646295091e-02 0.0000000000000000e+00 -7.5305712477242758e-03 
2.4501675646243067e-02 0.0000000000000000e+00 -7.5305712411109504e-03 
3.2749258922725302e-02 0.0000000000000000e+00 -7.9931253618030565e-03 
3.2749258926976589e-02 0.0000000000000000e+00 -7.9931253753952065e-03 
4.0758940947399888e-02 0.0000000000000000e+00 -8.2703199005530088e-03 
4.0758940982559617e-02 0.0000000000000000e+00 -8.2703199253566680e-03 
4.8430679223843282e-02 0.0000000000000000e+00 -8.3709095741112561e-03 
4.8430679239892208e-02 0.0000000000000000e+00 -8.3709095803416733e-03 
5.5557144899507450e-02 0.0000000000000000e+00 -8.2483821106704505e-03 
5.5557144810692814e-02 0.0000000000000000e+00 -8.2483820872472254e-03 
6.1857620203700267e-02 0.0000000000000000e+00 -7.9367970487345899e-03 
6.1857620027808619e-02 0.0000000000000000e+00 -7.9367970237483824e-03 
6.7267057553767051e-02 0.0000000000000000e+00 -7.5818683388282643e-03 
6.7267057427049762e-02 0.0000000000000000e+00 -7.5818683364223677e-03 
7.1951304944669309e-02 0.0000000000000000e+00 -7.2931271156178399e-03 
7.1951304935655533e-02 0.0000000000000000e+00 -7.2931271179371999e-03 
7.6117990023198689e-02 0.0000000000000000e+00 -7.1095664643300756e-03 
7.6117990043310532e-02 0.0000000000000000e+00 -7.1095664417417086e-03 
7.9977068086988373e-02 0.0000000000000000e+00 -7.0507266794875212e-03 
7.9977068038495983e-02 0.0000000000000000e+00 -7.0507266377543391e-03 
8.3700345889886549e-02 0.0000000000000000e+00 -7.0886178275242377e-03 
8.3700345827976294e-02 0.0000000000000000e+00 -7.0886178030079988e-03 

