# vtk DataFile Version 2.0

ASCII

DATASET UNSTRUCTURED_GRID

POINTS 33 float 

-5.0000000000000003e-02  1.4999999999999997e-01  3.3333333335000000e-02
-5.0000000000000003e-02  1.4999999999999999e-01  9.9999999985000018e-02
-5.0000000000000003e-02  1.4999999999999997e-01  1.6666666665000002e-01
-5.0000000000000003e-02  1.4999999999999999e-01  2.3333333334999998e-01
-5.0000000000000003e-02  1.4999999999999997e-01  2.9999999999999993e-01
-5.0000000000000003e-02  1.4999999999999997e-01  3.6666666665000003e-01
-5.0000000000000003e-02  1.4999999999999999e-01  4.3333333335000002e-01
-5.0000000000000003e-02  1.4999999999999997e-01  5.0000000000000000e-01
-5.0000000000000003e-02  1.4999999999999999e-01  5.6666666664999987e-01
-5.0000000000000003e-02  1.4999999999999999e-01  6.3333333334999986e-01
-5.0000000000000003e-02  1.4999999999999997e-01  6.9999999999999984e-01
-5.0000000000000003e-02  1.4999999999999999e-01  7.6666666664999994e-01
-4.9999999999999996e-02  1.4999999999999999e-01  8.3333333334999982e-01
-5.0000000000000003e-02  1.4999999999999997e-01  8.9999999999999991e-01
-5.0000000000000003e-02  1.4999999999999999e-01  9.6666666664999990e-01
-3.3333333335000000e-02  1.4999999999999997e-01  9.9999999999999978e-01
0.0000000000000000e+00  1.4999999999999997e-01  1.0000000000000000e+00
3.3333333335000007e-02  1.4999999999999999e-01  1.0000000000000000e+00
5.0000000000000003e-02  1.4999999999999997e-01  3.3333333335000000e-02
5.0000000000000003e-02  1.4999999999999999e-01  9.9999999985000004e-02
5.0000000000000003e-02  1.4999999999999999e-01  1.6666666664999999e-01
5.0000000000000003e-02  1.5000000000000002e-01  2.3333333334999998e-01
5.0000000000000003e-02  1.4999999999999997e-01  2.9999999999999993e-01
5.0000000000000003e-02  1.4999999999999997e-01  3.6666666665000003e-01
5.0000000000000003e-02  1.5000000000000002e-01  4.3333333334999991e-01
5.0000000000000003e-02  1.4999999999999997e-01  5.0000000000000000e-01
5.0000000000000003e-02  1.5000000000000002e-01  5.6666666664999987e-01
5.0000000000000003e-02  1.5000000000000002e-01  6.3333333334999997e-01
5.0000000000000003e-02  1.4999999999999997e-01  6.9999999999999984e-01
5.0000000000000003e-02  1.4999999999999999e-01  7.6666666664999994e-01
5.0000000000000003e-02  1.5000000000000002e-01  8.3333333334999993e-01
5.0000000000000010e-02  1.4999999999999997e-01  8.9999999999999991e-01
5.0000000000000003e-02  1.5000000000000002e-01  9.6666666664999990e-01

CELLS 0 0


CELL_TYPES 0


POINT_DATA 33

VECTORS VertexNormals float

0.0000000000000000e+00 0.0000000000000000e+00 0.0000000000000000e+00 
0.0000000000000000e+00 0.0000000000000000e+00 0.0000000000000000e+00 
0.0000000000000000e+00 0.0000000000000000e+00 0.0000000000000000e+00 
0.0000000000000000e+00 0.0000000000000000e+00 0.0000000000000000e+00 
0.0000000000000000e+00 0.0000000000000000e+00 0.0000000000000000e+00 
0.0000000000000000e+00 0.0000000000000000e+00 0.0000000000000000e+00 
0.0000000000000000e+00 0.0000000000000000e+00 0.0000000000000000e+00 
0.0000000000000000e+00 0.0000000000000000e+00 0.0000000000000000e+00 
0.0000000000000000e+00 0.0000000000000000e+00 0.0000000000000000e+00 
0.0000000000000000e+00 0.0000000000000000e+00 0.0000000000000000e+00 
0.0000000000000000e+00 0.0000000000000000e+00 0.0000000000000000e+00 
0.0000000000000000e+00 0.0000000000000000e+00 0.0000000000000000e+00 
0.0000000000000000e+00 0.0000000000000000e+00 0.0000000000000000e+00 
0.0000000000000000e+00 0.0000000000000000e+00 0.0000000000000000e+00 
0.0000000000000000e+00 0.0000000000000000e+00 0.0000000000000000e+00 
0.0000000000000000e+00 0.0000000000000000e+00 0.0000000000000000e+00 
0.0000000000000000e+00 0.0000000000000000e+00 0.0000000000000000e+00 
0.0000000000000000e+00 0.0000000000000000e+00 0.0000000000000000e+00 
0.0000000000000000e+00 0.0000000000000000e+00 0.0000000000000000e+00 
0.0000000000000000e+00 0.0000000000000000e+00 0.0000000000000000e+00 
0.0000000000000000e+00 0.0000000000000000e+00 0.0000000000000000e+00 
0.0000000000000000e+00 0.0000000000000000e+00 0.0000000000000000e+00 
0.0000000000000000e+00 0.0000000000000000e+00 0.0000000000000000e+00 
0.0000000000000000e+00 0.0000000000000000e+00 0.0000000000000000e+00 
0.0000000000000000e+00 0.0000000000000000e+00 0.0000000000000000e+00 
0.0000000000000000e+00 0.0000000000000000e+00 0.0000000000000000e+00 
0.0000000000000000e+00 0.0000000000000000e+00 0.0000000000000000e+00 
0.0000000000000000e+00 0.0000000000000000e+00 0.0000000000000000e+00 
0.0000000000000000e+00 0.0000000000000000e+00 0.0000000000000000e+00 
0.0000000000000000e+00 0.0000000000000000e+00 0.0000000000000000e+00 
0.0000000000000000e+00 0.0000000000000000e+00 0.0000000000000000e+00 
0.0000000000000000e+00 0.0000000000000000e+00 0.0000000000000000e+00 
0.0000000000000000e+00 0.0000000000000000e+00 0.0000000000000000e+00 

VECTORS Forces0 float
4.3159754523635003e+00 -1.8351854624962670e-18 -2.7465902913177964e-01 
4.2464815127425535e+00 -1.3949900504048295e-21 -5.9991814016215661e-01 
4.1504210004761548e+00 1.2176853971220903e-21 -8.9602538230202144e-01 
4.0208515354580365e+00 1.2598010093547656e-17 -1.1346963586024499e+00 
3.8595208257467228e+00 3.1457362525002505e-20 -1.3243969287296469e+00 
3.6814249228495051e+00 -1.2131225819381444e-17 -1.4598151690660393e+00 
3.5063045180400452e+00 1.7394120763204141e-18 -1.5422370301845558e+00 
3.3452589920684930e+00 1.7175188695239717e-18 -1.5859294212905219e+00 
3.1931065818453694e+00 -6.1730323238078041e-18 -1.6038956216777536e+00 
3.0450460295465005e+00 -1.6597134434897716e-18 -1.5990750602031709e+00 
2.8986581406461172e+00 8.8475680415199458e-18 -1.5733955695926234e+00 
2.7446459554397893e+00 8.4478521924765880e-18 -1.5288001605233072e+00 
2.5747253189038393e+00 -1.6246989304554268e-18 -1.4609382613734088e+00 
2.3834390389260363e+00 -1.3601323453179300e-21 -1.3614289398629689e+00 
2.1338090863950758e+00 -8.4993322175009467e-21 -1.2210960883150057e+00 
-1.6206690873567636e-01 -9.6598158862072353e-19 -2.8385184033899324e-01 
-2.6327134471675262e-01 1.5626071432854958e-21 -4.5667641067408060e-01 
-3.5465661449259428e-01 8.0522886169288828e-19 -6.1355666461702585e-01 
-1.7210498204770643e+00 -1.4097356495522823e-18 1.1307182808410812e-01 
-1.7301233116277974e+00 -1.4345864590895649e-18 2.4589076501820131e-01 
-1.7313220934656812e+00 2.5161816241336536e-18 3.7585028087287614e-01 
-1.7274827542702287e+00 6.5766265353708238e-18 4.8913038743756559e-01 
-1.7193711606123931e+00 1.5065820070582575e-18 5.9242556089596765e-01 
-1.7115877363065914e+00 -1.5300499253956907e-18 6.8181803207922187e-01 
-1.7043489550683841e+00 -6.7372389092915786e-18 7.5284078947718880e-01 
-1.6938462548598909e+00 1.5690518827302392e-18 8.0680876047969419e-01 
-1.6792840572373431e+00 -1.5837663792347317e-18 8.4800356669475618e-01 
-1.6616933129630220e+00 -5.1468024133691995e-18 8.7758896060353120e-01 
-1.6403356463382752e+00 1.3710354078864682e-20 8.9608050989200017e-01 
-1.6159520247440424e+00 -6.6876934794622116e-18 9.0660288043728510e-01 
-1.5909416371191132e+00 -1.6834994708970929e-18 9.0996655479296462e-01 
-1.5647144052404955e+00 -1.7720358473032592e-18 9.0221894707762362e-01 
-1.5364722892565739e+00 -4.9296321607134805e-21 8.8872032626213515e-01 

