# vtk DataFile Version 2.0

ASCII

DATASET UNSTRUCTURED_GRID

POINTS 68 double 

-5.0000000000000003e-02  2.9999999999999999e-01  0.0000000000000000e+00
-5.0000000000000003e-02  2.9999999999999999e-01  6.6666666669999999e-02
-5.0000000000000003e-02  0.0000000000000000e+00  6.6666666669999999e-02
-5.0000000000000003e-02  0.0000000000000000e+00  0.0000000000000000e+00
-5.0000000000000003e-02  2.9999999999999999e-01  1.3333333330000000e-01
-5.0000000000000003e-02  0.0000000000000000e+00  1.3333333330000000e-01
-5.0000000000000003e-02  2.9999999999999999e-01  2.0000000000000001e-01
-5.0000000000000003e-02  0.0000000000000000e+00  2.0000000000000001e-01
-5.0000000000000003e-02  2.9999999999999999e-01  2.6666666670000000e-01
-5.0000000000000003e-02  0.0000000000000000e+00  2.6666666670000000e-01
-5.0000000000000003e-02  2.9999999999999999e-01  3.3333333329999998e-01
-5.0000000000000003e-02  0.0000000000000000e+00  3.3333333329999998e-01
-5.0000000000000003e-02  2.9999999999999999e-01  4.0000000000000002e-01
-5.0000000000000003e-02  0.0000000000000000e+00  4.0000000000000002e-01
-5.0000000000000003e-02  2.9999999999999999e-01  4.6666666670000001e-01
-5.0000000000000003e-02  0.0000000000000000e+00  4.6666666670000001e-01
-5.0000000000000003e-02  2.9999999999999999e-01  5.3333333329999999e-01
-5.0000000000000003e-02  0.0000000000000000e+00  5.3333333329999999e-01
-5.0000000000000003e-02  2.9999999999999999e-01  5.9999999999999998e-01
-5.0000000000000003e-02  0.0000000000000000e+00  5.9999999999999998e-01
-5.0000000000000003e-02  2.9999999999999999e-01  6.6666666669999997e-01
-5.0000000000000003e-02  0.0000000000000000e+00  6.6666666669999997e-01
-5.0000000000000003e-02  2.9999999999999999e-01  7.3333333329999995e-01
-5.0000000000000003e-02  0.0000000000000000e+00  7.3333333329999995e-01
-5.0000000000000003e-02  2.9999999999999999e-01  8.0000000000000004e-01
-5.0000000000000003e-02  0.0000000000000000e+00  8.0000000000000004e-01
-5.0000000000000003e-02  2.9999999999999999e-01  8.6666666670000003e-01
-5.0000000000000003e-02  0.0000000000000000e+00  8.6666666670000003e-01
-5.0000000000000003e-02  2.9999999999999999e-01  9.3333333330000001e-01
-5.0000000000000003e-02  0.0000000000000000e+00  9.3333333330000001e-01
-5.0000000000000003e-02  2.9999999999999999e-01  1.0000000000000000e+00
-5.0000000000000003e-02  0.0000000000000000e+00  1.0000000000000000e+00
-1.6666666670000000e-02  2.9999999999999999e-01  1.0000000000000000e+00
-1.6666666670000000e-02  0.0000000000000000e+00  1.0000000000000000e+00
1.6666666670000000e-02  2.9999999999999999e-01  1.0000000000000000e+00
1.6666666670000000e-02  0.0000000000000000e+00  1.0000000000000000e+00
5.0000000000000003e-02  2.9999999999999999e-01  1.0000000000000000e+00
5.0000000000000003e-02  0.0000000000000000e+00  1.0000000000000000e+00
5.0000000000000003e-02  2.9999999999999999e-01  0.0000000000000000e+00
5.0000000000000003e-02  0.0000000000000000e+00  0.0000000000000000e+00
5.0000000000000003e-02  0.0000000000000000e+00  6.6666666669999999e-02
5.0000000000000003e-02  2.9999999999999999e-01  6.6666666669999999e-02
5.0000000000000003e-02  0.0000000000000000e+00  1.3333333330000000e-01
5.0000000000000003e-02  2.9999999999999999e-01  1.3333333330000000e-01
5.0000000000000003e-02  0.0000000000000000e+00  2.0000000000000001e-01
5.0000000000000003e-02  2.9999999999999999e-01  2.0000000000000001e-01
5.0000000000000003e-02  0.0000000000000000e+00  2.6666666670000000e-01
5.0000000000000003e-02  2.9999999999999999e-01  2.6666666670000000e-01
5.0000000000000003e-02  0.0000000000000000e+00  3.3333333329999998e-01
5.0000000000000003e-02  2.9999999999999999e-01  3.3333333329999998e-01
5.0000000000000003e-02  0.0000000000000000e+00  4.0000000000000002e-01
5.0000000000000003e-02  2.9999999999999999e-01  4.0000000000000002e-01
5.0000000000000003e-02  0.0000000000000000e+00  4.6666666670000001e-01
5.0000000000000003e-02  2.9999999999999999e-01  4.6666666670000001e-01
5.0000000000000003e-02  0.0000000000000000e+00  5.3333333329999999e-01
5.0000000000000003e-02  2.9999999999999999e-01  5.3333333329999999e-01
5.0000000000000003e-02  0.0000000000000000e+00  5.9999999999999998e-01
5.0000000000000003e-02  2.9999999999999999e-01  5.9999999999999998e-01
5.0000000000000003e-02  0.0000000000000000e+00  6.6666666669999997e-01
5.0000000000000003e-02  2.9999999999999999e-01  6.6666666669999997e-01
5.0000000000000003e-02  0.0000000000000000e+00  7.3333333329999995e-01
5.0000000000000003e-02  2.9999999999999999e-01  7.3333333329999995e-01
5.0000000000000003e-02  0.0000000000000000e+00  8.0000000000000004e-01
5.0000000000000003e-02  2.9999999999999999e-01  8.0000000000000004e-01
5.0000000000000003e-02  0.0000000000000000e+00  8.6666666670000003e-01
5.0000000000000003e-02  2.9999999999999999e-01  8.6666666670000003e-01
5.0000000000000003e-02  0.0000000000000000e+00  9.3333333330000001e-01
5.0000000000000003e-02  2.9999999999999999e-01  9.3333333330000001e-01

CELLS 0 0


CELL_TYPES 0


POINT_DATA 68

VECTORS VertexNormals double

0.0000000000000000e+00 0.0000000000000000e+00 0.0000000000000000e+00 
0.0000000000000000e+00 0.0000000000000000e+00 0.0000000000000000e+00 
0.0000000000000000e+00 0.0000000000000000e+00 0.0000000000000000e+00 
0.0000000000000000e+00 0.0000000000000000e+00 0.0000000000000000e+00 
0.0000000000000000e+00 0.0000000000000000e+00 0.0000000000000000e+00 
0.0000000000000000e+00 0.0000000000000000e+00 0.0000000000000000e+00 
0.0000000000000000e+00 0.0000000000000000e+00 0.0000000000000000e+00 
0.0000000000000000e+00 0.0000000000000000e+00 0.0000000000000000e+00 
0.0000000000000000e+00 0.0000000000000000e+00 0.0000000000000000e+00 
0.0000000000000000e+00 0.0000000000000000e+00 0.0000000000000000e+00 
0.0000000000000000e+00 0.0000000000000000e+00 0.0000000000000000e+00 
0.0000000000000000e+00 0.0000000000000000e+00 0.0000000000000000e+00 
0.0000000000000000e+00 0.0000000000000000e+00 0.0000000000000000e+00 
0.0000000000000000e+00 0.0000000000000000e+00 0.0000000000000000e+00 
0.0000000000000000e+00 0.0000000000000000e+00 0.0000000000000000e+00 
0.0000000000000000e+00 0.0000000000000000e+00 0.0000000000000000e+00 
0.0000000000000000e+00 0.0000000000000000e+00 0.0000000000000000e+00 
0.0000000000000000e+00 0.0000000000000000e+00 0.0000000000000000e+00 
0.0000000000000000e+00 0.0000000000000000e+00 0.0000000000000000e+00 
0.0000000000000000e+00 0.0000000000000000e+00 0.0000000000000000e+00 
0.0000000000000000e+00 0.0000000000000000e+00 0.0000000000000000e+00 
0.0000000000000000e+00 0.0000000000000000e+00 0.0000000000000000e+00 
0.0000000000000000e+00 0.0000000000000000e+00 0.0000000000000000e+00 
0.0000000000000000e+00 0.0000000000000000e+00 0.0000000000000000e+00 
0.0000000000000000e+00 0.0000000000000000e+00 0.0000000000000000e+00 
0.0000000000000000e+00 0.0000000000000000e+00 0.0000000000000000e+00 
0.0000000000000000e+00 0.0000000000000000e+00 0.0000000000000000e+00 
0.0000000000000000e+00 0.0000000000000000e+00 0.0000000000000000e+00 
0.0000000000000000e+00 0.0000000000000000e+00 0.0000000000000000e+00 
0.0000000000000000e+00 0.0000000000000000e+00 0.0000000000000000e+00 
0.0000000000000000e+00 0.0000000000000000e+00 0.0000000000000000e+00 
0.0000000000000000e+00 0.0000000000000000e+00 0.0000000000000000e+00 
0.0000000000000000e+00 0.0000000000000000e+00 0.0000000000000000e+00 
0.0000000000000000e+00 0.0000000000000000e+00 0.0000000000000000e+00 
0.0000000000000000e+00 0.0000000000000000e+00 0.0000000000000000e+00 
0.0000000000000000e+00 0.0000000000000000e+00 0.0000000000000000e+00 
0.0000000000000000e+00 0.0000000000000000e+00 0.0000000000000000e+00 
0.0000000000000000e+00 0.0000000000000000e+00 0.0000000000000000e+00 
0.0000000000000000e+00 0.0000000000000000e+00 0.0000000000000000e+00 
0.0000000000000000e+00 0.0000000000000000e+00 0.0000000000000000e+00 
0.0000000000000000e+00 0.0000000000000000e+00 0.0000000000000000e+00 
0.0000000000000000e+00 0.0000000000000000e+00 0.0000000000000000e+00 
0.0000000000000000e+00 0.0000000000000000e+00 0.0000000000000000e+00 
0.0000000000000000e+00 0.0000000000000000e+00 0.0000000000000000e+00 
0.0000000000000000e+00 0.0000000000000000e+00 0.0000000000000000e+00 
0.0000000000000000e+00 0.0000000000000000e+00 0.0000000000000000e+00 
0.0000000000000000e+00 0.0000000000000000e+00 0.0000000000000000e+00 
0.0000000000000000e+00 0.0000000000000000e+00 0.0000000000000000e+00 
0.0000000000000000e+00 0.0000000000000000e+00 0.0000000000000000e+00 
0.0000000000000000e+00 0.0000000000000000e+00 0.0000000000000000e+00 
0.0000000000000000e+00 0.0000000000000000e+00 0.0000000000000000e+00 
0.0000000000000000e+00 0.0000000000000000e+00 0.0000000000000000e+00 
0.0000000000000000e+00 0.0000000000000000e+00 0.0000000000000000e+00 
0.0000000000000000e+00 0.0000000000000000e+00 0.0000000000000000e+00 
0.0000000000000000e+00 0.0000000000000000e+00 0.0000000000000000e+00 
0.0000000000000000e+00 0.0000000000000000e+00 0.0000000000000000e+00 
0.0000000000000000e+00 0.0000000000000000e+00 0.0000000000000000e+00 
0.0000000000000000e+00 0.0000000000000000e+00 0.0000000000000000e+00 
0.0000000000000000e+00 0.0000000000000000e+00 0.0000000000000000e+00 
0.0000000000000000e+00 0.0000000000000000e+00 0.0000000000000000e+00 
0.0000000000000000e+00 0.0000000000000000e+00 0.0000000000000000e+00 
0.0000000000000000e+00 0.0000000000000000e+00 0.0000000000000000e+00 
0.0000000000000000e+00 0.0000000000000000e+00 0.0000000000000000e+00 
0.0000000000000000e+00 0.0000000000000000e+00 0.0000000000000000e+00 
0.0000000000000000e+00 0.0000000000000000e+00 0.0000000000000000e+00 
0.0000000000000000e+00 0.0000000000000000e+00 0.0000000000000000e+00 
0.0000000000000000e+00 0.0000000000000000e+00 0.0000000000000000e+00 
0.0000000000000000e+00 0.0000000000000000e+00 0.0000000000000000e+00 

VECTORS Displacements0 double
0.0000000000000000e+00 0.0000000000000000e+00 0.0000000000000000e+00 
1.0820851191025384e-03 0.0000000000000000e+00 8.9561443023918204e-04 
1.0820850957510768e-03 0.0000000000000000e+00 8.9561443456711123e-04 
0.0000000000000000e+00 0.0000000000000000e+00 0.0000000000000000e+00 
2.8601686737421074e-03 0.0000000000000000e+00 1.3767122658317242e-03 
2.8601686386563667e-03 0.0000000000000000e+00 1.3767122879041038e-03 
4.9453040388985105e-03 0.0000000000000000e+00 1.4909867565089986e-03 
4.9453040423685377e-03 0.0000000000000000e+00 1.4909867854680466e-03 
6.8369434717960916e-03 0.0000000000000000e+00 1.3322096040650575e-03 
6.8369434995039849e-03 0.0000000000000000e+00 1.3322096186670373e-03 
8.2876097557730843e-03 0.0000000000000000e+00 9.9046389667724983e-04 
8.2876097441865124e-03 0.0000000000000000e+00 9.9046389477066015e-04 
9.0036303380523364e-03 0.0000000000000000e+00 5.2639645092630188e-04 
9.0036302677867115e-03 0.0000000000000000e+00 5.2639645180597148e-04 
8.8227603171508080e-03 0.0000000000000000e+00 1.8362210361778261e-04 
8.8227602530535042e-03 0.0000000000000000e+00 1.8362211434567229e-04 
8.2578433442154053e-03 0.0000000000000000e+00 1.5038907591748623e-04 
8.2578433260473566e-03 0.0000000000000000e+00 1.5038908141835054e-04 
7.8666200537535567e-03 0.0000000000000000e+00 3.0798584535045813e-04 
7.8666200587380018e-03 0.0000000000000000e+00 3.0798584295374472e-04 
7.7183164395910634e-03 0.0000000000000000e+00 4.4481371194740870e-04 
7.7183164431888973e-03 0.0000000000000000e+00 4.4481370915339135e-04 
7.6278101741264264e-03 0.0000000000000000e+00 5.0512766685267092e-04 
7.6278101740726934e-03 0.0000000000000000e+00 5.0512766827969858e-04 
7.5041579570113495e-03 0.0000000000000000e+00 5.2926479607135987e-04 
7.5041579645720351e-03 0.0000000000000000e+00 5.2926480215263836e-04 
7.3300262357753375e-03 0.0000000000000000e+00 5.4098518908056871e-04 
7.3300262475079533e-03 0.0000000000000000e+00 5.4098519395745731e-04 
7.1032267150665900e-03 0.0000000000000000e+00 5.6311681274910565e-04 
7.1032266998070914e-03 0.0000000000000000e+00 5.6311680818725346e-04 
6.8864965108796942e-03 0.0000000000000000e+00 5.9000367230879747e-04 
6.8864964453421293e-03 0.0000000000000000e+00 5.9000365749483849e-04 
6.8793708944487712e-03 0.0000000000000000e+00 6.8523803572088742e-04 
6.8793708412566660e-03 0.0000000000000000e+00 6.8523803081698667e-04 
6.8801476317780627e-03 0.0000000000000000e+00 7.9537920353156869e-04 
6.8801475964697222e-03 0.0000000000000000e+00 7.9537920540568934e-04 
6.8860406703135368e-03 0.0000000000000000e+00 8.7170285426298958e-04 
6.8860406533213965e-03 0.0000000000000000e+00 8.7170285760684884e-04 
0.0000000000000000e+00 0.0000000000000000e+00 0.0000000000000000e+00 
0.0000000000000000e+00 0.0000000000000000e+00 0.0000000000000000e+00 
1.0355418338717619e-03 0.0000000000000000e+00 -8.2778795019060835e-04 
1.0355417898374607e-03 0.0000000000000000e+00 -8.2778795876236721e-04 
2.7967038858111230e-03 0.0000000000000000e+00 -1.2495227406606607e-03 
2.7967038840008059e-03 0.0000000000000000e+00 -1.2495227421113514e-03 
4.8671780133181649e-03 0.0000000000000000e+00 -1.2940451050942876e-03 
4.8671780132738115e-03 0.0000000000000000e+00 -1.2940450973776844e-03 
6.7695455422746437e-03 0.0000000000000000e+00 -1.0409971861076741e-03 
6.7695455364013678e-03 0.0000000000000000e+00 -1.0409971821803451e-03 
8.2298252747671947e-03 0.0000000000000000e+00 -5.7404487228477816e-04 
8.2298252918997141e-03 0.0000000000000000e+00 -5.7404487540457880e-04 
8.9513098731908349e-03 0.0000000000000000e+00 4.7730384037589170e-05 
8.9513099108063810e-03 0.0000000000000000e+00 4.7730384382641824e-05 
8.7811829520191165e-03 0.0000000000000000e+00 5.5318715505875047e-04 
8.7811829606177019e-03 0.0000000000000000e+00 5.5318715651932258e-04 
8.2257952319847363e-03 0.0000000000000000e+00 7.2535357955268187e-04 
8.2257952030666773e-03 0.0000000000000000e+00 7.2535356895876398e-04 
7.8425114385038460e-03 0.0000000000000000e+00 6.8327433645274684e-04 
7.8425114066891094e-03 0.0000000000000000e+00 6.8327431941721142e-04 
7.7020833527405878e-03 0.0000000000000000e+00 6.4522283694904196e-04 
7.7020833394662990e-03 0.0000000000000000e+00 6.4522282512198363e-04 
7.6114771618150581e-03 0.0000000000000000e+00 6.7634989711537561e-04 
7.6114771619147439e-03 0.0000000000000000e+00 6.7634989577511427e-04 
7.4893565676466007e-03 0.0000000000000000e+00 7.4036381823107086e-04 
7.4893565578269374e-03 0.0000000000000000e+00 7.4036382743000609e-04 
7.3195205482693496e-03 0.0000000000000000e+00 8.1094801200612995e-04 
7.3195205191832757e-03 0.0000000000000000e+00 8.1094802448109513e-04 
7.0923370442416752e-03 0.0000000000000000e+00 8.6000841350846987e-04 
7.0923370216436077e-03 0.0000000000000000e+00 8.6000841920799557e-04 

