# vtk DataFile Version 2.0

ASCII

DATASET UNSTRUCTURED_GRID

POINTS 68 float 

-5.0000000000000003e-02  2.9999999999999999e-01  0.0000000000000000e+00
-5.0000000000000003e-02  2.9999999999999999e-01  6.6666666669999999e-02
-5.0000000000000003e-02  0.0000000000000000e+00  6.6666666669999999e-02
-5.0000000000000003e-02  0.0000000000000000e+00  0.0000000000000000e+00
-5.0000000000000003e-02  2.9999999999999999e-01  1.3333333330000000e-01
-5.0000000000000003e-02  0.0000000000000000e+00  1.3333333330000000e-01
-5.0000000000000003e-02  2.9999999999999999e-01  2.0000000000000001e-01
-5.0000000000000003e-02  0.0000000000000000e+00  2.0000000000000001e-01
-5.0000000000000003e-02  2.9999999999999999e-01  2.6666666670000000e-01
-5.0000000000000003e-02  0.0000000000000000e+00  2.6666666670000000e-01
-5.0000000000000003e-02  2.9999999999999999e-01  3.3333333329999998e-01
-5.0000000000000003e-02  0.0000000000000000e+00  3.3333333329999998e-01
-5.0000000000000003e-02  2.9999999999999999e-01  4.0000000000000002e-01
-5.0000000000000003e-02  0.0000000000000000e+00  4.0000000000000002e-01
-5.0000000000000003e-02  2.9999999999999999e-01  4.6666666670000001e-01
-5.0000000000000003e-02  0.0000000000000000e+00  4.6666666670000001e-01
-5.0000000000000003e-02  2.9999999999999999e-01  5.3333333329999999e-01
-5.0000000000000003e-02  0.0000000000000000e+00  5.3333333329999999e-01
-5.0000000000000003e-02  2.9999999999999999e-01  5.9999999999999998e-01
-5.0000000000000003e-02  0.0000000000000000e+00  5.9999999999999998e-01
-5.0000000000000003e-02  2.9999999999999999e-01  6.6666666669999997e-01
-5.0000000000000003e-02  0.0000000000000000e+00  6.6666666669999997e-01
-5.0000000000000003e-02  2.9999999999999999e-01  7.3333333329999995e-01
-5.0000000000000003e-02  0.0000000000000000e+00  7.3333333329999995e-01
-5.0000000000000003e-02  2.9999999999999999e-01  8.0000000000000004e-01
-5.0000000000000003e-02  0.0000000000000000e+00  8.0000000000000004e-01
-5.0000000000000003e-02  2.9999999999999999e-01  8.6666666670000003e-01
-5.0000000000000003e-02  0.0000000000000000e+00  8.6666666670000003e-01
-5.0000000000000003e-02  2.9999999999999999e-01  9.3333333330000001e-01
-5.0000000000000003e-02  0.0000000000000000e+00  9.3333333330000001e-01
-5.0000000000000003e-02  2.9999999999999999e-01  1.0000000000000000e+00
-5.0000000000000003e-02  0.0000000000000000e+00  1.0000000000000000e+00
-1.6666666670000000e-02  2.9999999999999999e-01  1.0000000000000000e+00
-1.6666666670000000e-02  0.0000000000000000e+00  1.0000000000000000e+00
1.6666666670000000e-02  2.9999999999999999e-01  1.0000000000000000e+00
1.6666666670000000e-02  0.0000000000000000e+00  1.0000000000000000e+00
5.0000000000000003e-02  2.9999999999999999e-01  1.0000000000000000e+00
5.0000000000000003e-02  0.0000000000000000e+00  1.0000000000000000e+00
5.0000000000000003e-02  2.9999999999999999e-01  0.0000000000000000e+00
5.0000000000000003e-02  0.0000000000000000e+00  0.0000000000000000e+00
5.0000000000000003e-02  0.0000000000000000e+00  6.6666666669999999e-02
5.0000000000000003e-02  2.9999999999999999e-01  6.6666666669999999e-02
5.0000000000000003e-02  0.0000000000000000e+00  1.3333333330000000e-01
5.0000000000000003e-02  2.9999999999999999e-01  1.3333333330000000e-01
5.0000000000000003e-02  0.0000000000000000e+00  2.0000000000000001e-01
5.0000000000000003e-02  2.9999999999999999e-01  2.0000000000000001e-01
5.0000000000000003e-02  0.0000000000000000e+00  2.6666666670000000e-01
5.0000000000000003e-02  2.9999999999999999e-01  2.6666666670000000e-01
5.0000000000000003e-02  0.0000000000000000e+00  3.3333333329999998e-01
5.0000000000000003e-02  2.9999999999999999e-01  3.3333333329999998e-01
5.0000000000000003e-02  0.0000000000000000e+00  4.0000000000000002e-01
5.0000000000000003e-02  2.9999999999999999e-01  4.0000000000000002e-01
5.0000000000000003e-02  0.0000000000000000e+00  4.6666666670000001e-01
5.0000000000000003e-02  2.9999999999999999e-01  4.6666666670000001e-01
5.0000000000000003e-02  0.0000000000000000e+00  5.3333333329999999e-01
5.0000000000000003e-02  2.9999999999999999e-01  5.3333333329999999e-01
5.0000000000000003e-02  0.0000000000000000e+00  5.9999999999999998e-01
5.0000000000000003e-02  2.9999999999999999e-01  5.9999999999999998e-01
5.0000000000000003e-02  0.0000000000000000e+00  6.6666666669999997e-01
5.0000000000000003e-02  2.9999999999999999e-01  6.6666666669999997e-01
5.0000000000000003e-02  0.0000000000000000e+00  7.3333333329999995e-01
5.0000000000000003e-02  2.9999999999999999e-01  7.3333333329999995e-01
5.0000000000000003e-02  0.0000000000000000e+00  8.0000000000000004e-01
5.0000000000000003e-02  2.9999999999999999e-01  8.0000000000000004e-01
5.0000000000000003e-02  0.0000000000000000e+00  8.6666666670000003e-01
5.0000000000000003e-02  2.9999999999999999e-01  8.6666666670000003e-01
5.0000000000000003e-02  0.0000000000000000e+00  9.3333333330000001e-01
5.0000000000000003e-02  2.9999999999999999e-01  9.3333333330000001e-01

CELLS 0 0


CELL_TYPES 0


POINT_DATA 68

VECTORS VertexNormals float

0.0000000000000000e+00 0.0000000000000000e+00 0.0000000000000000e+00 
0.0000000000000000e+00 0.0000000000000000e+00 0.0000000000000000e+00 
0.0000000000000000e+00 0.0000000000000000e+00 0.0000000000000000e+00 
0.0000000000000000e+00 0.0000000000000000e+00 0.0000000000000000e+00 
0.0000000000000000e+00 0.0000000000000000e+00 0.0000000000000000e+00 
0.0000000000000000e+00 0.0000000000000000e+00 0.0000000000000000e+00 
0.0000000000000000e+00 0.0000000000000000e+00 0.0000000000000000e+00 
0.0000000000000000e+00 0.0000000000000000e+00 0.0000000000000000e+00 
0.0000000000000000e+00 0.0000000000000000e+00 0.0000000000000000e+00 
0.0000000000000000e+00 0.0000000000000000e+00 0.0000000000000000e+00 
0.0000000000000000e+00 0.0000000000000000e+00 0.0000000000000000e+00 
0.0000000000000000e+00 0.0000000000000000e+00 0.0000000000000000e+00 
0.0000000000000000e+00 0.0000000000000000e+00 0.0000000000000000e+00 
0.0000000000000000e+00 0.0000000000000000e+00 0.0000000000000000e+00 
0.0000000000000000e+00 0.0000000000000000e+00 0.0000000000000000e+00 
0.0000000000000000e+00 0.0000000000000000e+00 0.0000000000000000e+00 
0.0000000000000000e+00 0.0000000000000000e+00 0.0000000000000000e+00 
0.0000000000000000e+00 0.0000000000000000e+00 0.0000000000000000e+00 
0.0000000000000000e+00 0.0000000000000000e+00 0.0000000000000000e+00 
0.0000000000000000e+00 0.0000000000000000e+00 0.0000000000000000e+00 
0.0000000000000000e+00 0.0000000000000000e+00 0.0000000000000000e+00 
0.0000000000000000e+00 0.0000000000000000e+00 0.0000000000000000e+00 
0.0000000000000000e+00 0.0000000000000000e+00 0.0000000000000000e+00 
0.0000000000000000e+00 0.0000000000000000e+00 0.0000000000000000e+00 
0.0000000000000000e+00 0.0000000000000000e+00 0.0000000000000000e+00 
0.0000000000000000e+00 0.0000000000000000e+00 0.0000000000000000e+00 
0.0000000000000000e+00 0.0000000000000000e+00 0.0000000000000000e+00 
0.0000000000000000e+00 0.0000000000000000e+00 0.0000000000000000e+00 
0.0000000000000000e+00 0.0000000000000000e+00 0.0000000000000000e+00 
0.0000000000000000e+00 0.0000000000000000e+00 0.0000000000000000e+00 
0.0000000000000000e+00 0.0000000000000000e+00 0.0000000000000000e+00 
0.0000000000000000e+00 0.0000000000000000e+00 0.0000000000000000e+00 
0.0000000000000000e+00 0.0000000000000000e+00 0.0000000000000000e+00 
0.0000000000000000e+00 0.0000000000000000e+00 0.0000000000000000e+00 
0.0000000000000000e+00 0.0000000000000000e+00 0.0000000000000000e+00 
0.0000000000000000e+00 0.0000000000000000e+00 0.0000000000000000e+00 
0.0000000000000000e+00 0.0000000000000000e+00 0.0000000000000000e+00 
0.0000000000000000e+00 0.0000000000000000e+00 0.0000000000000000e+00 
0.0000000000000000e+00 0.0000000000000000e+00 0.0000000000000000e+00 
0.0000000000000000e+00 0.0000000000000000e+00 0.0000000000000000e+00 
0.0000000000000000e+00 0.0000000000000000e+00 0.0000000000000000e+00 
0.0000000000000000e+00 0.0000000000000000e+00 0.0000000000000000e+00 
0.0000000000000000e+00 0.0000000000000000e+00 0.0000000000000000e+00 
0.0000000000000000e+00 0.0000000000000000e+00 0.0000000000000000e+00 
0.0000000000000000e+00 0.0000000000000000e+00 0.0000000000000000e+00 
0.0000000000000000e+00 0.0000000000000000e+00 0.0000000000000000e+00 
0.0000000000000000e+00 0.0000000000000000e+00 0.0000000000000000e+00 
0.0000000000000000e+00 0.0000000000000000e+00 0.0000000000000000e+00 
0.0000000000000000e+00 0.0000000000000000e+00 0.0000000000000000e+00 
0.0000000000000000e+00 0.0000000000000000e+00 0.0000000000000000e+00 
0.0000000000000000e+00 0.0000000000000000e+00 0.0000000000000000e+00 
0.0000000000000000e+00 0.0000000000000000e+00 0.0000000000000000e+00 
0.0000000000000000e+00 0.0000000000000000e+00 0.0000000000000000e+00 
0.0000000000000000e+00 0.0000000000000000e+00 0.0000000000000000e+00 
0.0000000000000000e+00 0.0000000000000000e+00 0.0000000000000000e+00 
0.0000000000000000e+00 0.0000000000000000e+00 0.0000000000000000e+00 
0.0000000000000000e+00 0.0000000000000000e+00 0.0000000000000000e+00 
0.0000000000000000e+00 0.0000000000000000e+00 0.0000000000000000e+00 
0.0000000000000000e+00 0.0000000000000000e+00 0.0000000000000000e+00 
0.0000000000000000e+00 0.0000000000000000e+00 0.0000000000000000e+00 
0.0000000000000000e+00 0.0000000000000000e+00 0.0000000000000000e+00 
0.0000000000000000e+00 0.0000000000000000e+00 0.0000000000000000e+00 
0.0000000000000000e+00 0.0000000000000000e+00 0.0000000000000000e+00 
0.0000000000000000e+00 0.0000000000000000e+00 0.0000000000000000e+00 
0.0000000000000000e+00 0.0000000000000000e+00 0.0000000000000000e+00 
0.0000000000000000e+00 0.0000000000000000e+00 0.0000000000000000e+00 
0.0000000000000000e+00 0.0000000000000000e+00 0.0000000000000000e+00 
0.0000000000000000e+00 0.0000000000000000e+00 0.0000000000000000e+00 

VECTORS Displacements0 float
0.0000000000000000e+00 0.0000000000000000e+00 0.0000000000000000e+00 
2.3711512961501879e-03 0.0000000000000000e+00 2.4085148448657855e-03 
2.3711514285074294e-03 0.0000000000000000e+00 2.4085147371414014e-03 
0.0000000000000000e+00 0.0000000000000000e+00 0.0000000000000000e+00 
7.7440972256721113e-03 0.0000000000000000e+00 4.3774768126145121e-03 
7.7440973370959919e-03 0.0000000000000000e+00 4.3774766011574449e-03 
1.6153121068689630e-02 0.0000000000000000e+00 5.8857329347177297e-03 
1.6153120952281892e-02 0.0000000000000000e+00 5.8857327875915261e-03 
2.7451037709480201e-02 0.0000000000000000e+00 6.8279230828170584e-03 
2.7451037529279070e-02 0.0000000000000000e+00 6.8279230522722764e-03 
4.1307191387145385e-02 0.0000000000000000e+00 7.0463205484190428e-03 
4.1307191454378091e-02 0.0000000000000000e+00 7.0463205417563689e-03 
5.7199807973949267e-02 0.0000000000000000e+00 6.5457137841617476e-03 
5.7199808358083207e-02 0.0000000000000000e+00 6.5457137049972844e-03 
7.4771929614685026e-02 0.0000000000000000e+00 5.4560396017397095e-03 
7.4771930043428275e-02 0.0000000000000000e+00 5.4560394740094803e-03 
9.3920432443368937e-02 0.0000000000000000e+00 3.8646906374612093e-03 
9.3920432614968616e-02 0.0000000000000000e+00 3.8646905698768580e-03 
1.1460092134241448e-01 0.0000000000000000e+00 1.7578758587000649e-03 
1.1460092126441107e-01 0.0000000000000000e+00 1.7578758994788272e-03 
1.3671871019972381e-01 0.0000000000000000e+00 -9.1247337596813902e-04 
1.3671871011769829e-01 0.0000000000000000e+00 -9.1247331348400657e-04 
1.6010434369532525e-01 0.0000000000000000e+00 -4.1883101020169407e-03 
1.6010434370849155e-01 0.0000000000000000e+00 -4.1883101273921669e-03 
1.8444626772488323e-01 0.0000000000000000e+00 -8.0731868971822413e-03 
1.8444626768525776e-01 0.0000000000000000e+00 -8.0731869910266457e-03 
2.0932807330675532e-01 0.0000000000000000e+00 -1.2462110568049103e-02 
2.0932807319582944e-01 0.0000000000000000e+00 -1.2462110618136412e-02 
2.3440979181048680e-01 0.0000000000000000e+00 -1.7158789283181236e-02 
2.3440979196994630e-01 0.0000000000000000e+00 -1.7158789259431827e-02 
2.5953955767768350e-01 0.0000000000000000e+00 -2.2011459783553934e-02 
2.5953955840199333e-01 0.0000000000000000e+00 -2.2011459772484233e-02 
2.5714642459421966e-01 0.0000000000000000e+00 -3.4527272442927928e-02 
2.5714642515494468e-01 0.0000000000000000e+00 -3.4527272538197276e-02 
2.5466263863340877e-01 0.0000000000000000e+00 -4.7111304497150876e-02 
2.5466263898625058e-01 0.0000000000000000e+00 -4.7111304631700879e-02 
2.5218812686625758e-01 0.0000000000000000e+00 -5.9619748657898361e-02 
2.5218812702526988e-01 0.0000000000000000e+00 -5.9619748757058513e-02 
0.0000000000000000e+00 0.0000000000000000e+00 0.0000000000000000e+00 
0.0000000000000000e+00 0.0000000000000000e+00 0.0000000000000000e+00 
2.2806626201959355e-03 0.0000000000000000e+00 -2.8325364254632810e-03 
2.2806629377396144e-03 0.0000000000000000e+00 -2.8325363484604212e-03 
7.2892257491146209e-03 0.0000000000000000e+00 -5.5407538587615469e-03 
7.2892257618803885e-03 0.0000000000000000e+00 -5.5407538518297090e-03 
1.5173819792972928e-02 0.0000000000000000e+00 -8.3543575172473957e-03 
1.5173819801991680e-02 0.0000000000000000e+00 -8.3543575524234748e-03 
2.5807620668551821e-02 0.0000000000000000e+00 -1.1394575798949848e-02 
2.5807620699976823e-02 0.0000000000000000e+00 -1.1394575817035395e-02 
3.8958863731010755e-02 0.0000000000000000e+00 -1.4608183267836288e-02 
3.8958863644217884e-02 0.0000000000000000e+00 -1.4608183236683191e-02 
5.4168736941675844e-02 0.0000000000000000e+00 -1.7960330260586251e-02 
5.4168736745290623e-02 0.0000000000000000e+00 -1.7960330209090773e-02 
7.1066054322187946e-02 0.0000000000000000e+00 -2.1533554542014582e-02 
7.1066054264278450e-02 0.0000000000000000e+00 -2.1533554528937463e-02 
8.9522951229171421e-02 0.0000000000000000e+00 -2.5451646325524553e-02 
8.9522951515622312e-02 0.0000000000000000e+00 -2.5451646362664591e-02 
1.0949579538064216e-01 0.0000000000000000e+00 -2.9760419893034323e-02 
1.0949579587269362e-01 0.0000000000000000e+00 -2.9760419918597968e-02 
1.3091538597481372e-01 0.0000000000000000e+00 -3.4438332903029181e-02 
1.3091538630254634e-01 0.0000000000000000e+00 -3.4438332873313798e-02 
1.5367514140129460e-01 0.0000000000000000e+00 -3.9416398746602264e-02 
1.5367514143018896e-01 0.0000000000000000e+00 -3.9416398735474728e-02 
1.7754068426423666e-01 0.0000000000000000e+00 -4.4541966825897665e-02 
1.7754068425262826e-01 0.0000000000000000e+00 -4.4541966953038949e-02 
2.0213727481803881e-01 0.0000000000000000e+00 -4.9647539713966946e-02 
2.0213727500298892e-01 0.0000000000000000e+00 -4.9647539950944355e-02 
2.2709080507848425e-01 0.0000000000000000e+00 -5.4676998937454646e-02 
2.2709080527226827e-01 0.0000000000000000e+00 -5.4676999083517933e-02 

