# vtk DataFile Version 2.0

ASCII

DATASET UNSTRUCTURED_GRID

POINTS 33 float 

-5.0000000000000003e-02  1.4999999999999997e-01  3.3333333335000000e-02
-5.0000000000000003e-02  1.4999999999999999e-01  9.9999999985000018e-02
-5.0000000000000003e-02  1.4999999999999997e-01  1.6666666665000002e-01
-5.0000000000000003e-02  1.4999999999999999e-01  2.3333333334999998e-01
-5.0000000000000003e-02  1.4999999999999997e-01  2.9999999999999993e-01
-5.0000000000000003e-02  1.4999999999999997e-01  3.6666666665000003e-01
-5.0000000000000003e-02  1.4999999999999999e-01  4.3333333335000002e-01
-5.0000000000000003e-02  1.4999999999999997e-01  5.0000000000000000e-01
-5.0000000000000003e-02  1.4999999999999999e-01  5.6666666664999987e-01
-5.0000000000000003e-02  1.4999999999999999e-01  6.3333333334999986e-01
-5.0000000000000003e-02  1.4999999999999997e-01  6.9999999999999984e-01
-5.0000000000000003e-02  1.4999999999999999e-01  7.6666666664999994e-01
-4.9999999999999996e-02  1.4999999999999999e-01  8.3333333334999982e-01
-5.0000000000000003e-02  1.4999999999999997e-01  8.9999999999999991e-01
-5.0000000000000003e-02  1.4999999999999999e-01  9.6666666664999990e-01
-3.3333333335000000e-02  1.4999999999999997e-01  9.9999999999999978e-01
0.0000000000000000e+00  1.4999999999999997e-01  1.0000000000000000e+00
3.3333333335000007e-02  1.4999999999999999e-01  1.0000000000000000e+00
5.0000000000000003e-02  1.4999999999999997e-01  3.3333333335000000e-02
5.0000000000000003e-02  1.4999999999999999e-01  9.9999999985000004e-02
5.0000000000000003e-02  1.4999999999999999e-01  1.6666666664999999e-01
5.0000000000000003e-02  1.5000000000000002e-01  2.3333333334999998e-01
5.0000000000000003e-02  1.4999999999999997e-01  2.9999999999999993e-01
5.0000000000000003e-02  1.4999999999999997e-01  3.6666666665000003e-01
5.0000000000000003e-02  1.5000000000000002e-01  4.3333333334999991e-01
5.0000000000000003e-02  1.4999999999999997e-01  5.0000000000000000e-01
5.0000000000000003e-02  1.5000000000000002e-01  5.6666666664999987e-01
5.0000000000000003e-02  1.5000000000000002e-01  6.3333333334999997e-01
5.0000000000000003e-02  1.4999999999999997e-01  6.9999999999999984e-01
5.0000000000000003e-02  1.4999999999999999e-01  7.6666666664999994e-01
5.0000000000000003e-02  1.5000000000000002e-01  8.3333333334999993e-01
5.0000000000000010e-02  1.4999999999999997e-01  8.9999999999999991e-01
5.0000000000000003e-02  1.5000000000000002e-01  9.6666666664999990e-01

CELLS 0 0


CELL_TYPES 0


POINT_DATA 33

VECTORS VertexNormals float

0.0000000000000000e+00 0.0000000000000000e+00 0.0000000000000000e+00 
0.0000000000000000e+00 0.0000000000000000e+00 0.0000000000000000e+00 
0.0000000000000000e+00 0.0000000000000000e+00 0.0000000000000000e+00 
0.0000000000000000e+00 0.0000000000000000e+00 0.0000000000000000e+00 
0.0000000000000000e+00 0.0000000000000000e+00 0.0000000000000000e+00 
0.0000000000000000e+00 0.0000000000000000e+00 0.0000000000000000e+00 
0.0000000000000000e+00 0.0000000000000000e+00 0.0000000000000000e+00 
0.0000000000000000e+00 0.0000000000000000e+00 0.0000000000000000e+00 
0.0000000000000000e+00 0.0000000000000000e+00 0.0000000000000000e+00 
0.0000000000000000e+00 0.0000000000000000e+00 0.0000000000000000e+00 
0.0000000000000000e+00 0.0000000000000000e+00 0.0000000000000000e+00 
0.0000000000000000e+00 0.0000000000000000e+00 0.0000000000000000e+00 
0.0000000000000000e+00 0.0000000000000000e+00 0.0000000000000000e+00 
0.0000000000000000e+00 0.0000000000000000e+00 0.0000000000000000e+00 
0.0000000000000000e+00 0.0000000000000000e+00 0.0000000000000000e+00 
0.0000000000000000e+00 0.0000000000000000e+00 0.0000000000000000e+00 
0.0000000000000000e+00 0.0000000000000000e+00 0.0000000000000000e+00 
0.0000000000000000e+00 0.0000000000000000e+00 0.0000000000000000e+00 
0.0000000000000000e+00 0.0000000000000000e+00 0.0000000000000000e+00 
0.0000000000000000e+00 0.0000000000000000e+00 0.0000000000000000e+00 
0.0000000000000000e+00 0.0000000000000000e+00 0.0000000000000000e+00 
0.0000000000000000e+00 0.0000000000000000e+00 0.0000000000000000e+00 
0.0000000000000000e+00 0.0000000000000000e+00 0.0000000000000000e+00 
0.0000000000000000e+00 0.0000000000000000e+00 0.0000000000000000e+00 
0.0000000000000000e+00 0.0000000000000000e+00 0.0000000000000000e+00 
0.0000000000000000e+00 0.0000000000000000e+00 0.0000000000000000e+00 
0.0000000000000000e+00 0.0000000000000000e+00 0.0000000000000000e+00 
0.0000000000000000e+00 0.0000000000000000e+00 0.0000000000000000e+00 
0.0000000000000000e+00 0.0000000000000000e+00 0.0000000000000000e+00 
0.0000000000000000e+00 0.0000000000000000e+00 0.0000000000000000e+00 
0.0000000000000000e+00 0.0000000000000000e+00 0.0000000000000000e+00 
0.0000000000000000e+00 0.0000000000000000e+00 0.0000000000000000e+00 
0.0000000000000000e+00 0.0000000000000000e+00 0.0000000000000000e+00 

VECTORS Forces0 float
2.3191771130922199e+00 -2.3509887016445750e-38 -1.0305515767193339e-01 
2.2881909536627045e+00 3.2192117209817730e-18 -1.9768529547130329e-01 
2.2519649254613241e+00 -1.6778174997347143e-18 -2.5309274212288368e-01 
2.2204882234000953e+00 3.0158759753501140e-18 -2.6720100822438536e-01 
2.1907006736201531e+00 9.5233641969161748e-21 -2.6699489174567298e-01 
2.1518546622805181e+00 -6.7682991177615222e-23 -2.5898660380710498e-01 
2.1012297287272954e+00 -3.9427648654004457e-21 -2.3779103954603234e-01 
2.0409743970069836e+00 1.5994896029990086e-18 -2.0510174681970636e-01 
1.9693618634441383e+00 -1.8367099231598242e-40 -1.6800468049611902e-01 
1.8815087432646547e+00 1.2898086078507416e-18 -1.3322989638700747e-01 
1.7669791370997112e+00 1.6054497729824376e-18 -1.0504450082956027e-01 
1.6113588036410942e+00 -2.1549857175818132e-18 -8.2845342614407819e-02 
1.3927527712543195e+00 7.3468396926392969e-39 -6.3422621981523084e-02 
1.0609697256096573e+00 -1.6080139988864126e-18 -4.3432338837622493e-02 
4.7582017737482052e-01 -1.5849978774778400e-18 -1.5001107042500798e-02 
6.5612903937501341e-02 8.0718480350352404e-19 1.3056493730193521e+00 
4.9844586373087696e-02 -9.9125150327965172e-19 1.1111561837330755e+00 
4.3112124819965660e-02 7.9897770135795299e-19 9.0052911979856509e-01 
1.1821263225085723e+00 1.5059317411828956e-18 -5.4298405290956857e-02 
1.1936963234829159e+00 1.5517424170605434e-18 -1.0362096200404695e-01 
1.2110740677025009e+00 2.6490688676089543e-21 -1.3602177668632393e-01 
1.2361167190629450e+00 -1.1754943508222875e-38 -1.4813262852989714e-01 
1.2718608334872377e+00 7.5846565389624100e-23 -1.5414907769755132e-01 
1.3223575035930744e+00 1.7958650570595484e-18 -1.5807956676356716e-01 
1.3856925316052326e+00 -2.2724247643762831e-21 -1.5561641757395331e-01 
1.4532110952275490e+00 -9.8075088020214586e-19 -1.4475158198280827e-01 
1.5159910143371522e+00 1.6657914131811041e-18 -1.2831749988089766e-01 
1.5661751566798638e+00 -9.5606271143727817e-24 -1.1017864990134811e-01 
1.5983665168731191e+00 2.7312435747237570e-18 -9.5009127457490683e-02 
1.6109837112932004e+00 -3.3082034254588495e-18 -8.3859231043116156e-02 
1.6046079511761113e+00 1.6514246897399312e-18 -7.5823219390645180e-02 
1.5809010020429046e+00 1.6527038465709451e-18 -7.1016276590383190e-02 
1.5433223014974795e+00 -1.6518909871418669e-38 -6.9830963121116460e-02 

