# vtk DataFile Version 2.0

ASCII

DATASET UNSTRUCTURED_GRID

POINTS 68 float 

-5.0000000000000003e-02  2.9999999999999999e-01  0.0000000000000000e+00
-5.0000000000000003e-02  2.9999999999999999e-01  6.6666666669999999e-02
-5.0000000000000003e-02  0.0000000000000000e+00  6.6666666669999999e-02
-5.0000000000000003e-02  0.0000000000000000e+00  0.0000000000000000e+00
-5.0000000000000003e-02  2.9999999999999999e-01  1.3333333330000000e-01
-5.0000000000000003e-02  0.0000000000000000e+00  1.3333333330000000e-01
-5.0000000000000003e-02  2.9999999999999999e-01  2.0000000000000001e-01
-5.0000000000000003e-02  0.0000000000000000e+00  2.0000000000000001e-01
-5.0000000000000003e-02  2.9999999999999999e-01  2.6666666670000000e-01
-5.0000000000000003e-02  0.0000000000000000e+00  2.6666666670000000e-01
-5.0000000000000003e-02  2.9999999999999999e-01  3.3333333329999998e-01
-5.0000000000000003e-02  0.0000000000000000e+00  3.3333333329999998e-01
-5.0000000000000003e-02  2.9999999999999999e-01  4.0000000000000002e-01
-5.0000000000000003e-02  0.0000000000000000e+00  4.0000000000000002e-01
-5.0000000000000003e-02  2.9999999999999999e-01  4.6666666670000001e-01
-5.0000000000000003e-02  0.0000000000000000e+00  4.6666666670000001e-01
-5.0000000000000003e-02  2.9999999999999999e-01  5.3333333329999999e-01
-5.0000000000000003e-02  0.0000000000000000e+00  5.3333333329999999e-01
-5.0000000000000003e-02  2.9999999999999999e-01  5.9999999999999998e-01
-5.0000000000000003e-02  0.0000000000000000e+00  5.9999999999999998e-01
-5.0000000000000003e-02  2.9999999999999999e-01  6.6666666669999997e-01
-5.0000000000000003e-02  0.0000000000000000e+00  6.6666666669999997e-01
-5.0000000000000003e-02  2.9999999999999999e-01  7.3333333329999995e-01
-5.0000000000000003e-02  0.0000000000000000e+00  7.3333333329999995e-01
-5.0000000000000003e-02  2.9999999999999999e-01  8.0000000000000004e-01
-5.0000000000000003e-02  0.0000000000000000e+00  8.0000000000000004e-01
-5.0000000000000003e-02  2.9999999999999999e-01  8.6666666670000003e-01
-5.0000000000000003e-02  0.0000000000000000e+00  8.6666666670000003e-01
-5.0000000000000003e-02  2.9999999999999999e-01  9.3333333330000001e-01
-5.0000000000000003e-02  0.0000000000000000e+00  9.3333333330000001e-01
-5.0000000000000003e-02  2.9999999999999999e-01  1.0000000000000000e+00
-5.0000000000000003e-02  0.0000000000000000e+00  1.0000000000000000e+00
-1.6666666670000000e-02  2.9999999999999999e-01  1.0000000000000000e+00
-1.6666666670000000e-02  0.0000000000000000e+00  1.0000000000000000e+00
1.6666666670000000e-02  2.9999999999999999e-01  1.0000000000000000e+00
1.6666666670000000e-02  0.0000000000000000e+00  1.0000000000000000e+00
5.0000000000000003e-02  2.9999999999999999e-01  1.0000000000000000e+00
5.0000000000000003e-02  0.0000000000000000e+00  1.0000000000000000e+00
5.0000000000000003e-02  2.9999999999999999e-01  0.0000000000000000e+00
5.0000000000000003e-02  0.0000000000000000e+00  0.0000000000000000e+00
5.0000000000000003e-02  0.0000000000000000e+00  6.6666666669999999e-02
5.0000000000000003e-02  2.9999999999999999e-01  6.6666666669999999e-02
5.0000000000000003e-02  0.0000000000000000e+00  1.3333333330000000e-01
5.0000000000000003e-02  2.9999999999999999e-01  1.3333333330000000e-01
5.0000000000000003e-02  0.0000000000000000e+00  2.0000000000000001e-01
5.0000000000000003e-02  2.9999999999999999e-01  2.0000000000000001e-01
5.0000000000000003e-02  0.0000000000000000e+00  2.6666666670000000e-01
5.0000000000000003e-02  2.9999999999999999e-01  2.6666666670000000e-01
5.0000000000000003e-02  0.0000000000000000e+00  3.3333333329999998e-01
5.0000000000000003e-02  2.9999999999999999e-01  3.3333333329999998e-01
5.0000000000000003e-02  0.0000000000000000e+00  4.0000000000000002e-01
5.0000000000000003e-02  2.9999999999999999e-01  4.0000000000000002e-01
5.0000000000000003e-02  0.0000000000000000e+00  4.6666666670000001e-01
5.0000000000000003e-02  2.9999999999999999e-01  4.6666666670000001e-01
5.0000000000000003e-02  0.0000000000000000e+00  5.3333333329999999e-01
5.0000000000000003e-02  2.9999999999999999e-01  5.3333333329999999e-01
5.0000000000000003e-02  0.0000000000000000e+00  5.9999999999999998e-01
5.0000000000000003e-02  2.9999999999999999e-01  5.9999999999999998e-01
5.0000000000000003e-02  0.0000000000000000e+00  6.6666666669999997e-01
5.0000000000000003e-02  2.9999999999999999e-01  6.6666666669999997e-01
5.0000000000000003e-02  0.0000000000000000e+00  7.3333333329999995e-01
5.0000000000000003e-02  2.9999999999999999e-01  7.3333333329999995e-01
5.0000000000000003e-02  0.0000000000000000e+00  8.0000000000000004e-01
5.0000000000000003e-02  2.9999999999999999e-01  8.0000000000000004e-01
5.0000000000000003e-02  0.0000000000000000e+00  8.6666666670000003e-01
5.0000000000000003e-02  2.9999999999999999e-01  8.6666666670000003e-01
5.0000000000000003e-02  0.0000000000000000e+00  9.3333333330000001e-01
5.0000000000000003e-02  2.9999999999999999e-01  9.3333333330000001e-01

CELLS 0 0


CELL_TYPES 0


POINT_DATA 68

VECTORS VertexNormals float

0.0000000000000000e+00 0.0000000000000000e+00 0.0000000000000000e+00 
0.0000000000000000e+00 0.0000000000000000e+00 0.0000000000000000e+00 
0.0000000000000000e+00 0.0000000000000000e+00 0.0000000000000000e+00 
0.0000000000000000e+00 0.0000000000000000e+00 0.0000000000000000e+00 
0.0000000000000000e+00 0.0000000000000000e+00 0.0000000000000000e+00 
0.0000000000000000e+00 0.0000000000000000e+00 0.0000000000000000e+00 
0.0000000000000000e+00 0.0000000000000000e+00 0.0000000000000000e+00 
0.0000000000000000e+00 0.0000000000000000e+00 0.0000000000000000e+00 
0.0000000000000000e+00 0.0000000000000000e+00 0.0000000000000000e+00 
0.0000000000000000e+00 0.0000000000000000e+00 0.0000000000000000e+00 
0.0000000000000000e+00 0.0000000000000000e+00 0.0000000000000000e+00 
0.0000000000000000e+00 0.0000000000000000e+00 0.0000000000000000e+00 
0.0000000000000000e+00 0.0000000000000000e+00 0.0000000000000000e+00 
0.0000000000000000e+00 0.0000000000000000e+00 0.0000000000000000e+00 
0.0000000000000000e+00 0.0000000000000000e+00 0.0000000000000000e+00 
0.0000000000000000e+00 0.0000000000000000e+00 0.0000000000000000e+00 
0.0000000000000000e+00 0.0000000000000000e+00 0.0000000000000000e+00 
0.0000000000000000e+00 0.0000000000000000e+00 0.0000000000000000e+00 
0.0000000000000000e+00 0.0000000000000000e+00 0.0000000000000000e+00 
0.0000000000000000e+00 0.0000000000000000e+00 0.0000000000000000e+00 
0.0000000000000000e+00 0.0000000000000000e+00 0.0000000000000000e+00 
0.0000000000000000e+00 0.0000000000000000e+00 0.0000000000000000e+00 
0.0000000000000000e+00 0.0000000000000000e+00 0.0000000000000000e+00 
0.0000000000000000e+00 0.0000000000000000e+00 0.0000000000000000e+00 
0.0000000000000000e+00 0.0000000000000000e+00 0.0000000000000000e+00 
0.0000000000000000e+00 0.0000000000000000e+00 0.0000000000000000e+00 
0.0000000000000000e+00 0.0000000000000000e+00 0.0000000000000000e+00 
0.0000000000000000e+00 0.0000000000000000e+00 0.0000000000000000e+00 
0.0000000000000000e+00 0.0000000000000000e+00 0.0000000000000000e+00 
0.0000000000000000e+00 0.0000000000000000e+00 0.0000000000000000e+00 
0.0000000000000000e+00 0.0000000000000000e+00 0.0000000000000000e+00 
0.0000000000000000e+00 0.0000000000000000e+00 0.0000000000000000e+00 
0.0000000000000000e+00 0.0000000000000000e+00 0.0000000000000000e+00 
0.0000000000000000e+00 0.0000000000000000e+00 0.0000000000000000e+00 
0.0000000000000000e+00 0.0000000000000000e+00 0.0000000000000000e+00 
0.0000000000000000e+00 0.0000000000000000e+00 0.0000000000000000e+00 
0.0000000000000000e+00 0.0000000000000000e+00 0.0000000000000000e+00 
0.0000000000000000e+00 0.0000000000000000e+00 0.0000000000000000e+00 
0.0000000000000000e+00 0.0000000000000000e+00 0.0000000000000000e+00 
0.0000000000000000e+00 0.0000000000000000e+00 0.0000000000000000e+00 
0.0000000000000000e+00 0.0000000000000000e+00 0.0000000000000000e+00 
0.0000000000000000e+00 0.0000000000000000e+00 0.0000000000000000e+00 
0.0000000000000000e+00 0.0000000000000000e+00 0.0000000000000000e+00 
0.0000000000000000e+00 0.0000000000000000e+00 0.0000000000000000e+00 
0.0000000000000000e+00 0.0000000000000000e+00 0.0000000000000000e+00 
0.0000000000000000e+00 0.0000000000000000e+00 0.0000000000000000e+00 
0.0000000000000000e+00 0.0000000000000000e+00 0.0000000000000000e+00 
0.0000000000000000e+00 0.0000000000000000e+00 0.0000000000000000e+00 
0.0000000000000000e+00 0.0000000000000000e+00 0.0000000000000000e+00 
0.0000000000000000e+00 0.0000000000000000e+00 0.0000000000000000e+00 
0.0000000000000000e+00 0.0000000000000000e+00 0.0000000000000000e+00 
0.0000000000000000e+00 0.0000000000000000e+00 0.0000000000000000e+00 
0.0000000000000000e+00 0.0000000000000000e+00 0.0000000000000000e+00 
0.0000000000000000e+00 0.0000000000000000e+00 0.0000000000000000e+00 
0.0000000000000000e+00 0.0000000000000000e+00 0.0000000000000000e+00 
0.0000000000000000e+00 0.0000000000000000e+00 0.0000000000000000e+00 
0.0000000000000000e+00 0.0000000000000000e+00 0.0000000000000000e+00 
0.0000000000000000e+00 0.0000000000000000e+00 0.0000000000000000e+00 
0.0000000000000000e+00 0.0000000000000000e+00 0.0000000000000000e+00 
0.0000000000000000e+00 0.0000000000000000e+00 0.0000000000000000e+00 
0.0000000000000000e+00 0.0000000000000000e+00 0.0000000000000000e+00 
0.0000000000000000e+00 0.0000000000000000e+00 0.0000000000000000e+00 
0.0000000000000000e+00 0.0000000000000000e+00 0.0000000000000000e+00 
0.0000000000000000e+00 0.0000000000000000e+00 0.0000000000000000e+00 
0.0000000000000000e+00 0.0000000000000000e+00 0.0000000000000000e+00 
0.0000000000000000e+00 0.0000000000000000e+00 0.0000000000000000e+00 
0.0000000000000000e+00 0.0000000000000000e+00 0.0000000000000000e+00 
0.0000000000000000e+00 0.0000000000000000e+00 0.0000000000000000e+00 

VECTORS Displacements0 float
0.0000000000000000e+00 0.0000000000000000e+00 0.0000000000000000e+00 
1.7541137067593974e-03 0.0000000000000000e+00 2.2126470734007819e-03 
1.7541138212157758e-03 0.0000000000000000e+00 2.2126469813330812e-03 
0.0000000000000000e+00 0.0000000000000000e+00 0.0000000000000000e+00 
6.5954388984147995e-03 0.0000000000000000e+00 4.3211864279108433e-03 
6.5954389785754172e-03 0.0000000000000000e+00 4.3211862510718624e-03 
1.4757942101864902e-02 0.0000000000000000e+00 5.9670251384003666e-03 
1.4757941981201179e-02 0.0000000000000000e+00 5.9670250213861575e-03 
2.5722172275331023e-02 0.0000000000000000e+00 6.8978590914451077e-03 
2.5722172112185422e-02 0.0000000000000000e+00 6.8978590689093046e-03 
3.8862170597994482e-02 0.0000000000000000e+00 7.1160921289098109e-03 
3.8862170656500057e-02 0.0000000000000000e+00 7.1160921208114451e-03 
5.3759257487528245e-02 0.0000000000000000e+00 6.7374257254747480e-03 
5.3759257816785852e-02 0.0000000000000000e+00 6.7374256545951680e-03 
7.0197663534546956e-02 0.0000000000000000e+00 5.8267137759036788e-03 
7.0197663893597051e-02 0.0000000000000000e+00 5.8267136660967549e-03 
8.7967790617037286e-02 0.0000000000000000e+00 4.4170013594639554e-03 
8.7967790757583347e-02 0.0000000000000000e+00 4.4170013024847563e-03 
1.0684883576427393e-01 0.0000000000000000e+00 2.5638337177348695e-03 
1.0684883570360770e-01 0.0000000000000000e+00 2.5638337500952131e-03 
1.2670367493009427e-01 0.0000000000000000e+00 3.2609959415724754e-04 
1.2670367486755452e-01 0.0000000000000000e+00 3.2609964534446173e-04 
1.4745297289953080e-01 0.0000000000000000e+00 -2.2891778883945245e-03 
1.4745297291015413e-01 0.0000000000000000e+00 -2.2891779057636896e-03 
1.6891369265914136e-01 0.0000000000000000e+00 -5.2962824338518531e-03 
1.6891369262487022e-01 0.0000000000000000e+00 -5.2962825090024229e-03 
1.9080925518479480e-01 0.0000000000000000e+00 -8.6411788255649803e-03 
1.9080925509416613e-01 0.0000000000000000e+00 -8.6411788700612967e-03 
2.1290962618810391e-01 0.0000000000000000e+00 -1.2216375297831501e-02 
2.1290962631657756e-01 0.0000000000000000e+00 -1.2216375276308339e-02 
2.3508957723428600e-01 0.0000000000000000e+00 -1.5944439120229196e-02 
2.3508957781919237e-01 0.0000000000000000e+00 -1.5944439092673401e-02 
2.3324619983601175e-01 0.0000000000000000e+00 -2.6996719962288279e-02 
2.3324620029160059e-01 0.0000000000000000e+00 -2.6996720026162060e-02 
2.3133146108935645e-01 0.0000000000000000e+00 -3.8091207710590630e-02 
2.3133146137834340e-01 0.0000000000000000e+00 -3.8091207811173811e-02 
2.2941107792665183e-01 0.0000000000000000e+00 -4.9141195204238645e-02 
2.2941107805848174e-01 0.0000000000000000e+00 -4.9141195279982494e-02 
0.0000000000000000e+00 0.0000000000000000e+00 0.0000000000000000e+00 
0.0000000000000000e+00 0.0000000000000000e+00 0.0000000000000000e+00 
1.6376302520603996e-03 0.0000000000000000e+00 -2.4226198184849300e-03 
1.6376305235802861e-03 0.0000000000000000e+00 -2.4226197393248535e-03 
6.1410807704147148e-03 0.0000000000000000e+00 -5.0485931851579902e-03 
6.1410807808823728e-03 0.0000000000000000e+00 -5.0485931796016327e-03 
1.3797891957471435e-02 0.0000000000000000e+00 -7.7870975795369668e-03 
1.3797891971974237e-02 0.0000000000000000e+00 -7.7870976093305181e-03 
2.4175959533394763e-02 0.0000000000000000e+00 -1.0542231634775082e-02 
2.4175959562064114e-02 0.0000000000000000e+00 -1.0542231647467799e-02 
3.6735493364870496e-02 0.0000000000000000e+00 -1.3325846980180772e-02 
3.6735493284761896e-02 0.0000000000000000e+00 -1.3325846955335964e-02 
5.1070809369629842e-02 0.0000000000000000e+00 -1.6232717644752197e-02 
5.1070809195422270e-02 0.0000000000000000e+00 -1.6232717608928887e-02 
6.6964225468095412e-02 0.0000000000000000e+00 -1.9327186591237947e-02 
6.6964225416488860e-02 0.0000000000000000e+00 -1.9327186583824922e-02 
8.4226621913400912e-02 0.0000000000000000e+00 -2.2611165460993742e-02 
8.4226622147699715e-02 0.0000000000000000e+00 -2.2611165477966690e-02 
1.0264038614122550e-01 0.0000000000000000e+00 -2.6072262906452745e-02 
1.0264038653414073e-01 0.0000000000000000e+00 -2.6072262901725221e-02 
1.2205610844915847e-01 0.0000000000000000e+00 -2.9725837730710650e-02 
1.2205610870427554e-01 0.0000000000000000e+00 -2.9725837688954888e-02 
1.4240893158876050e-01 0.0000000000000000e+00 -3.3566542966494348e-02 
1.4240893161102788e-01 0.0000000000000000e+00 -3.3566542956523643e-02 
1.6355982378728448e-01 0.0000000000000000e+00 -3.7501661006636558e-02 
1.6355982378745401e-01 0.0000000000000000e+00 -3.7501661114901226e-02 
1.8525718339874928e-01 0.0000000000000000e+00 -4.1427928476380591e-02 
1.8525718355825224e-01 0.0000000000000000e+00 -4.1427928668450062e-02 
2.0725644486838243e-01 0.0000000000000000e+00 -4.5315935575869951e-02 
2.0725644502840421e-01 0.0000000000000000e+00 -4.5315935692190085e-02 

