# vtk DataFile Version 2.0

ASCII

DATASET UNSTRUCTURED_GRID

POINTS 33 float 

-5.0000000000000003e-02  1.4999999999999997e-01  3.3333333335000000e-02
-5.0000000000000003e-02  1.4999999999999999e-01  9.9999999985000018e-02
-5.0000000000000003e-02  1.4999999999999997e-01  1.6666666665000002e-01
-5.0000000000000003e-02  1.4999999999999999e-01  2.3333333334999998e-01
-5.0000000000000003e-02  1.4999999999999997e-01  2.9999999999999993e-01
-5.0000000000000003e-02  1.4999999999999997e-01  3.6666666665000003e-01
-5.0000000000000003e-02  1.4999999999999999e-01  4.3333333335000002e-01
-5.0000000000000003e-02  1.4999999999999997e-01  5.0000000000000000e-01
-5.0000000000000003e-02  1.4999999999999999e-01  5.6666666664999987e-01
-5.0000000000000003e-02  1.4999999999999999e-01  6.3333333334999986e-01
-5.0000000000000003e-02  1.4999999999999997e-01  6.9999999999999984e-01
-5.0000000000000003e-02  1.4999999999999999e-01  7.6666666664999994e-01
-4.9999999999999996e-02  1.4999999999999999e-01  8.3333333334999982e-01
-5.0000000000000003e-02  1.4999999999999997e-01  8.9999999999999991e-01
-5.0000000000000003e-02  1.4999999999999999e-01  9.6666666664999990e-01
-3.3333333335000000e-02  1.4999999999999997e-01  9.9999999999999978e-01
0.0000000000000000e+00  1.4999999999999997e-01  1.0000000000000000e+00
3.3333333335000007e-02  1.4999999999999999e-01  1.0000000000000000e+00
5.0000000000000003e-02  1.4999999999999997e-01  3.3333333335000000e-02
5.0000000000000003e-02  1.4999999999999999e-01  9.9999999985000004e-02
5.0000000000000003e-02  1.4999999999999999e-01  1.6666666664999999e-01
5.0000000000000003e-02  1.5000000000000002e-01  2.3333333334999998e-01
5.0000000000000003e-02  1.4999999999999997e-01  2.9999999999999993e-01
5.0000000000000003e-02  1.4999999999999997e-01  3.6666666665000003e-01
5.0000000000000003e-02  1.5000000000000002e-01  4.3333333334999991e-01
5.0000000000000003e-02  1.4999999999999997e-01  5.0000000000000000e-01
5.0000000000000003e-02  1.5000000000000002e-01  5.6666666664999987e-01
5.0000000000000003e-02  1.5000000000000002e-01  6.3333333334999997e-01
5.0000000000000003e-02  1.4999999999999997e-01  6.9999999999999984e-01
5.0000000000000003e-02  1.4999999999999999e-01  7.6666666664999994e-01
5.0000000000000003e-02  1.5000000000000002e-01  8.3333333334999993e-01
5.0000000000000010e-02  1.4999999999999997e-01  8.9999999999999991e-01
5.0000000000000003e-02  1.5000000000000002e-01  9.6666666664999990e-01

CELLS 0 0


CELL_TYPES 0


POINT_DATA 33

VECTORS VertexNormals float

0.0000000000000000e+00 0.0000000000000000e+00 0.0000000000000000e+00 
0.0000000000000000e+00 0.0000000000000000e+00 0.0000000000000000e+00 
0.0000000000000000e+00 0.0000000000000000e+00 0.0000000000000000e+00 
0.0000000000000000e+00 0.0000000000000000e+00 0.0000000000000000e+00 
0.0000000000000000e+00 0.0000000000000000e+00 0.0000000000000000e+00 
0.0000000000000000e+00 0.0000000000000000e+00 0.0000000000000000e+00 
0.0000000000000000e+00 0.0000000000000000e+00 0.0000000000000000e+00 
0.0000000000000000e+00 0.0000000000000000e+00 0.0000000000000000e+00 
0.0000000000000000e+00 0.0000000000000000e+00 0.0000000000000000e+00 
0.0000000000000000e+00 0.0000000000000000e+00 0.0000000000000000e+00 
0.0000000000000000e+00 0.0000000000000000e+00 0.0000000000000000e+00 
0.0000000000000000e+00 0.0000000000000000e+00 0.0000000000000000e+00 
0.0000000000000000e+00 0.0000000000000000e+00 0.0000000000000000e+00 
0.0000000000000000e+00 0.0000000000000000e+00 0.0000000000000000e+00 
0.0000000000000000e+00 0.0000000000000000e+00 0.0000000000000000e+00 
0.0000000000000000e+00 0.0000000000000000e+00 0.0000000000000000e+00 
0.0000000000000000e+00 0.0000000000000000e+00 0.0000000000000000e+00 
0.0000000000000000e+00 0.0000000000000000e+00 0.0000000000000000e+00 
0.0000000000000000e+00 0.0000000000000000e+00 0.0000000000000000e+00 
0.0000000000000000e+00 0.0000000000000000e+00 0.0000000000000000e+00 
0.0000000000000000e+00 0.0000000000000000e+00 0.0000000000000000e+00 
0.0000000000000000e+00 0.0000000000000000e+00 0.0000000000000000e+00 
0.0000000000000000e+00 0.0000000000000000e+00 0.0000000000000000e+00 
0.0000000000000000e+00 0.0000000000000000e+00 0.0000000000000000e+00 
0.0000000000000000e+00 0.0000000000000000e+00 0.0000000000000000e+00 
0.0000000000000000e+00 0.0000000000000000e+00 0.0000000000000000e+00 
0.0000000000000000e+00 0.0000000000000000e+00 0.0000000000000000e+00 
0.0000000000000000e+00 0.0000000000000000e+00 0.0000000000000000e+00 
0.0000000000000000e+00 0.0000000000000000e+00 0.0000000000000000e+00 
0.0000000000000000e+00 0.0000000000000000e+00 0.0000000000000000e+00 
0.0000000000000000e+00 0.0000000000000000e+00 0.0000000000000000e+00 
0.0000000000000000e+00 0.0000000000000000e+00 0.0000000000000000e+00 
0.0000000000000000e+00 0.0000000000000000e+00 0.0000000000000000e+00 

VECTORS Forces0 float
2.8200228800845426e+01 0.0000000000000000e+00 -1.2604721507880163e-03 
2.8125837666580164e+01 0.0000000000000000e+00 5.2360173435703975e-04 
2.7959243576218181e+01 0.0000000000000000e+00 9.0597317073957018e-04 
2.7694417043165199e+01 0.0000000000000000e+00 1.3036282087235775e-03 
2.7326602351572841e+01 0.0000000000000000e+00 1.7203213214126653e-03 
2.6849673058622923e+01 0.0000000000000000e+00 2.1616915196337179e-03 
2.6255188286940346e+01 0.0000000000000000e+00 2.6362019325771036e-03 
2.5531383775007860e+01 0.0000000000000000e+00 3.1555112613771757e-03 
2.4661614461471213e+01 0.0000000000000000e+00 3.7362644812271731e-03 
2.3621723862408629e+01 0.0000000000000000e+00 4.4030950021558737e-03 
2.2375188161000523e+01 0.0000000000000000e+00 5.1942989046053463e-03 
2.0863331263548613e+01 0.0000000000000000e+00 6.1727330565076351e-03 
1.8983323141551157e+01 0.0000000000000000e+00 7.4480636109854666e-03 
1.6530853140125998e+01 0.0000000000000000e+00 9.2289078790266880e-03 
1.3014622352673006e+01 0.0000000000000000e+00 1.0913062263259835e-02 
6.8964215697652296e-03 8.0195383201894038e-19 -5.2094122555045674e-01 
6.1510749698013532e-03 8.0195383225952630e-19 3.2668492337506511e-01 
5.3591362775428086e-03 0.0000000000000000e+00 8.3325312662018325e-01 
1.6437358162064871e+01 0.0000000000000000e+00 1.3303384782682682e-03 
1.6382222145208594e+01 0.0000000000000000e+00 -4.8797104805560791e-04 
1.6257565875898390e+01 0.0000000000000000e+00 -8.4564995091282078e-04 
1.6060148067538695e+01 0.0000000000000000e+00 -1.2133550739124184e-03 
1.5787982218896747e+01 0.0000000000000000e+00 -1.5952249095344082e-03 
1.5439339186366224e+01 0.0000000000000000e+00 -1.9941888030475122e-03 
1.5012638515903213e+01 0.0000000000000000e+00 -2.4137316074622889e-03 
1.4506822306348367e+01 0.0000000000000000e+00 -2.8567149566338557e-03 
1.3922456473191339e+01 0.0000000000000000e+00 -3.3224929238486766e-03 
1.3264720486920082e+01 0.0000000000000000e+00 -3.8350462516261920e-03 
1.2531100177516011e+01 0.0000000000000000e+00 -4.2602822167714539e-03 
1.1735423574065377e+01 0.0000000000000000e+00 -3.4844606051191154e-03 
1.1209600330288911e+01 0.0000000000000000e+00 -3.4000160786821286e-03 
1.1314854857871666e+01 1.6310925470181117e-18 -4.1392802065699360e-03 
1.0560286021930896e+01 0.0000000000000000e+00 -7.2928149456012873e-03 

