# vtk DataFile Version 2.0

ASCII

DATASET UNSTRUCTURED_GRID

POINTS 68 float 

-5.0000000000000003e-02  2.9999999999999999e-01  0.0000000000000000e+00
-5.0000000000000003e-02  2.9999999999999999e-01  6.6666666669999999e-02
-5.0000000000000003e-02  0.0000000000000000e+00  6.6666666669999999e-02
-5.0000000000000003e-02  0.0000000000000000e+00  0.0000000000000000e+00
-5.0000000000000003e-02  2.9999999999999999e-01  1.3333333330000000e-01
-5.0000000000000003e-02  0.0000000000000000e+00  1.3333333330000000e-01
-5.0000000000000003e-02  2.9999999999999999e-01  2.0000000000000001e-01
-5.0000000000000003e-02  0.0000000000000000e+00  2.0000000000000001e-01
-5.0000000000000003e-02  2.9999999999999999e-01  2.6666666670000000e-01
-5.0000000000000003e-02  0.0000000000000000e+00  2.6666666670000000e-01
-5.0000000000000003e-02  2.9999999999999999e-01  3.3333333329999998e-01
-5.0000000000000003e-02  0.0000000000000000e+00  3.3333333329999998e-01
-5.0000000000000003e-02  2.9999999999999999e-01  4.0000000000000002e-01
-5.0000000000000003e-02  0.0000000000000000e+00  4.0000000000000002e-01
-5.0000000000000003e-02  2.9999999999999999e-01  4.6666666670000001e-01
-5.0000000000000003e-02  0.0000000000000000e+00  4.6666666670000001e-01
-5.0000000000000003e-02  2.9999999999999999e-01  5.3333333329999999e-01
-5.0000000000000003e-02  0.0000000000000000e+00  5.3333333329999999e-01
-5.0000000000000003e-02  2.9999999999999999e-01  5.9999999999999998e-01
-5.0000000000000003e-02  0.0000000000000000e+00  5.9999999999999998e-01
-5.0000000000000003e-02  2.9999999999999999e-01  6.6666666669999997e-01
-5.0000000000000003e-02  0.0000000000000000e+00  6.6666666669999997e-01
-5.0000000000000003e-02  2.9999999999999999e-01  7.3333333329999995e-01
-5.0000000000000003e-02  0.0000000000000000e+00  7.3333333329999995e-01
-5.0000000000000003e-02  2.9999999999999999e-01  8.0000000000000004e-01
-5.0000000000000003e-02  0.0000000000000000e+00  8.0000000000000004e-01
-5.0000000000000003e-02  2.9999999999999999e-01  8.6666666670000003e-01
-5.0000000000000003e-02  0.0000000000000000e+00  8.6666666670000003e-01
-5.0000000000000003e-02  2.9999999999999999e-01  9.3333333330000001e-01
-5.0000000000000003e-02  0.0000000000000000e+00  9.3333333330000001e-01
-5.0000000000000003e-02  2.9999999999999999e-01  1.0000000000000000e+00
-5.0000000000000003e-02  0.0000000000000000e+00  1.0000000000000000e+00
-1.6666666670000000e-02  2.9999999999999999e-01  1.0000000000000000e+00
-1.6666666670000000e-02  0.0000000000000000e+00  1.0000000000000000e+00
1.6666666670000000e-02  2.9999999999999999e-01  1.0000000000000000e+00
1.6666666670000000e-02  0.0000000000000000e+00  1.0000000000000000e+00
5.0000000000000003e-02  2.9999999999999999e-01  1.0000000000000000e+00
5.0000000000000003e-02  0.0000000000000000e+00  1.0000000000000000e+00
5.0000000000000003e-02  2.9999999999999999e-01  0.0000000000000000e+00
5.0000000000000003e-02  0.0000000000000000e+00  0.0000000000000000e+00
5.0000000000000003e-02  0.0000000000000000e+00  6.6666666669999999e-02
5.0000000000000003e-02  2.9999999999999999e-01  6.6666666669999999e-02
5.0000000000000003e-02  0.0000000000000000e+00  1.3333333330000000e-01
5.0000000000000003e-02  2.9999999999999999e-01  1.3333333330000000e-01
5.0000000000000003e-02  0.0000000000000000e+00  2.0000000000000001e-01
5.0000000000000003e-02  2.9999999999999999e-01  2.0000000000000001e-01
5.0000000000000003e-02  0.0000000000000000e+00  2.6666666670000000e-01
5.0000000000000003e-02  2.9999999999999999e-01  2.6666666670000000e-01
5.0000000000000003e-02  0.0000000000000000e+00  3.3333333329999998e-01
5.0000000000000003e-02  2.9999999999999999e-01  3.3333333329999998e-01
5.0000000000000003e-02  0.0000000000000000e+00  4.0000000000000002e-01
5.0000000000000003e-02  2.9999999999999999e-01  4.0000000000000002e-01
5.0000000000000003e-02  0.0000000000000000e+00  4.6666666670000001e-01
5.0000000000000003e-02  2.9999999999999999e-01  4.6666666670000001e-01
5.0000000000000003e-02  0.0000000000000000e+00  5.3333333329999999e-01
5.0000000000000003e-02  2.9999999999999999e-01  5.3333333329999999e-01
5.0000000000000003e-02  0.0000000000000000e+00  5.9999999999999998e-01
5.0000000000000003e-02  2.9999999999999999e-01  5.9999999999999998e-01
5.0000000000000003e-02  0.0000000000000000e+00  6.6666666669999997e-01
5.0000000000000003e-02  2.9999999999999999e-01  6.6666666669999997e-01
5.0000000000000003e-02  0.0000000000000000e+00  7.3333333329999995e-01
5.0000000000000003e-02  2.9999999999999999e-01  7.3333333329999995e-01
5.0000000000000003e-02  0.0000000000000000e+00  8.0000000000000004e-01
5.0000000000000003e-02  2.9999999999999999e-01  8.0000000000000004e-01
5.0000000000000003e-02  0.0000000000000000e+00  8.6666666670000003e-01
5.0000000000000003e-02  2.9999999999999999e-01  8.6666666670000003e-01
5.0000000000000003e-02  0.0000000000000000e+00  9.3333333330000001e-01
5.0000000000000003e-02  2.9999999999999999e-01  9.3333333330000001e-01

CELLS 0 0


CELL_TYPES 0


POINT_DATA 68

VECTORS VertexNormals float

0.0000000000000000e+00 0.0000000000000000e+00 0.0000000000000000e+00 
0.0000000000000000e+00 0.0000000000000000e+00 0.0000000000000000e+00 
0.0000000000000000e+00 0.0000000000000000e+00 0.0000000000000000e+00 
0.0000000000000000e+00 0.0000000000000000e+00 0.0000000000000000e+00 
0.0000000000000000e+00 0.0000000000000000e+00 0.0000000000000000e+00 
0.0000000000000000e+00 0.0000000000000000e+00 0.0000000000000000e+00 
0.0000000000000000e+00 0.0000000000000000e+00 0.0000000000000000e+00 
0.0000000000000000e+00 0.0000000000000000e+00 0.0000000000000000e+00 
0.0000000000000000e+00 0.0000000000000000e+00 0.0000000000000000e+00 
0.0000000000000000e+00 0.0000000000000000e+00 0.0000000000000000e+00 
0.0000000000000000e+00 0.0000000000000000e+00 0.0000000000000000e+00 
0.0000000000000000e+00 0.0000000000000000e+00 0.0000000000000000e+00 
0.0000000000000000e+00 0.0000000000000000e+00 0.0000000000000000e+00 
0.0000000000000000e+00 0.0000000000000000e+00 0.0000000000000000e+00 
0.0000000000000000e+00 0.0000000000000000e+00 0.0000000000000000e+00 
0.0000000000000000e+00 0.0000000000000000e+00 0.0000000000000000e+00 
0.0000000000000000e+00 0.0000000000000000e+00 0.0000000000000000e+00 
0.0000000000000000e+00 0.0000000000000000e+00 0.0000000000000000e+00 
0.0000000000000000e+00 0.0000000000000000e+00 0.0000000000000000e+00 
0.0000000000000000e+00 0.0000000000000000e+00 0.0000000000000000e+00 
0.0000000000000000e+00 0.0000000000000000e+00 0.0000000000000000e+00 
0.0000000000000000e+00 0.0000000000000000e+00 0.0000000000000000e+00 
0.0000000000000000e+00 0.0000000000000000e+00 0.0000000000000000e+00 
0.0000000000000000e+00 0.0000000000000000e+00 0.0000000000000000e+00 
0.0000000000000000e+00 0.0000000000000000e+00 0.0000000000000000e+00 
0.0000000000000000e+00 0.0000000000000000e+00 0.0000000000000000e+00 
0.0000000000000000e+00 0.0000000000000000e+00 0.0000000000000000e+00 
0.0000000000000000e+00 0.0000000000000000e+00 0.0000000000000000e+00 
0.0000000000000000e+00 0.0000000000000000e+00 0.0000000000000000e+00 
0.0000000000000000e+00 0.0000000000000000e+00 0.0000000000000000e+00 
0.0000000000000000e+00 0.0000000000000000e+00 0.0000000000000000e+00 
0.0000000000000000e+00 0.0000000000000000e+00 0.0000000000000000e+00 
0.0000000000000000e+00 0.0000000000000000e+00 0.0000000000000000e+00 
0.0000000000000000e+00 0.0000000000000000e+00 0.0000000000000000e+00 
0.0000000000000000e+00 0.0000000000000000e+00 0.0000000000000000e+00 
0.0000000000000000e+00 0.0000000000000000e+00 0.0000000000000000e+00 
0.0000000000000000e+00 0.0000000000000000e+00 0.0000000000000000e+00 
0.0000000000000000e+00 0.0000000000000000e+00 0.0000000000000000e+00 
0.0000000000000000e+00 0.0000000000000000e+00 0.0000000000000000e+00 
0.0000000000000000e+00 0.0000000000000000e+00 0.0000000000000000e+00 
0.0000000000000000e+00 0.0000000000000000e+00 0.0000000000000000e+00 
0.0000000000000000e+00 0.0000000000000000e+00 0.0000000000000000e+00 
0.0000000000000000e+00 0.0000000000000000e+00 0.0000000000000000e+00 
0.0000000000000000e+00 0.0000000000000000e+00 0.0000000000000000e+00 
0.0000000000000000e+00 0.0000000000000000e+00 0.0000000000000000e+00 
0.0000000000000000e+00 0.0000000000000000e+00 0.0000000000000000e+00 
0.0000000000000000e+00 0.0000000000000000e+00 0.0000000000000000e+00 
0.0000000000000000e+00 0.0000000000000000e+00 0.0000000000000000e+00 
0.0000000000000000e+00 0.0000000000000000e+00 0.0000000000000000e+00 
0.0000000000000000e+00 0.0000000000000000e+00 0.0000000000000000e+00 
0.0000000000000000e+00 0.0000000000000000e+00 0.0000000000000000e+00 
0.0000000000000000e+00 0.0000000000000000e+00 0.0000000000000000e+00 
0.0000000000000000e+00 0.0000000000000000e+00 0.0000000000000000e+00 
0.0000000000000000e+00 0.0000000000000000e+00 0.0000000000000000e+00 
0.0000000000000000e+00 0.0000000000000000e+00 0.0000000000000000e+00 
0.0000000000000000e+00 0.0000000000000000e+00 0.0000000000000000e+00 
0.0000000000000000e+00 0.0000000000000000e+00 0.0000000000000000e+00 
0.0000000000000000e+00 0.0000000000000000e+00 0.0000000000000000e+00 
0.0000000000000000e+00 0.0000000000000000e+00 0.0000000000000000e+00 
0.0000000000000000e+00 0.0000000000000000e+00 0.0000000000000000e+00 
0.0000000000000000e+00 0.0000000000000000e+00 0.0000000000000000e+00 
0.0000000000000000e+00 0.0000000000000000e+00 0.0000000000000000e+00 
0.0000000000000000e+00 0.0000000000000000e+00 0.0000000000000000e+00 
0.0000000000000000e+00 0.0000000000000000e+00 0.0000000000000000e+00 
0.0000000000000000e+00 0.0000000000000000e+00 0.0000000000000000e+00 
0.0000000000000000e+00 0.0000000000000000e+00 0.0000000000000000e+00 
0.0000000000000000e+00 0.0000000000000000e+00 0.0000000000000000e+00 
0.0000000000000000e+00 0.0000000000000000e+00 0.0000000000000000e+00 

VECTORS Displacements0 float
0.0000000000000000e+00 0.0000000000000000e+00 0.0000000000000000e+00 
1.9988823743397610e-03 0.0000000000000000e+00 1.8198392733084761e-03 
1.9988823219252178e-03 0.0000000000000000e+00 1.8198392739106073e-03 
0.0000000000000000e+00 0.0000000000000000e+00 0.0000000000000000e+00 
5.9289284704681063e-03 0.0000000000000000e+00 3.1002020147721156e-03 
5.9289283298769382e-03 0.0000000000000000e+00 3.1002020489943852e-03 
1.1504022857875293e-02 0.0000000000000000e+00 3.8987340050606677e-03 
1.1504022737489900e-02 0.0000000000000000e+00 3.8987340730920997e-03 
1.8277290300155416e-02 0.0000000000000000e+00 4.2076065778651004e-03 
1.8277290277108390e-02 0.0000000000000000e+00 4.2076066275209155e-03 
2.5659512085300859e-02 0.0000000000000000e+00 3.9497767171428368e-03 
2.5659512072860966e-02 0.0000000000000000e+00 3.9497767041298051e-03 
3.2760677892897785e-02 0.0000000000000000e+00 3.1716268832078344e-03 
3.2760677759078143e-02 0.0000000000000000e+00 3.1716268312487273e-03 
3.8851076342677315e-02 0.0000000000000000e+00 2.1071581061454471e-03 
3.8851076136457996e-02 0.0000000000000000e+00 2.1071580713825687e-03 
4.3680769014535943e-02 0.0000000000000000e+00 9.8418179546399046e-04 
4.3680768912393073e-02 0.0000000000000000e+00 9.8418179059174679e-04 
4.7136363569534975e-02 0.0000000000000000e+00 -1.2169107016113834e-04 
4.7136363621932881e-02 0.0000000000000000e+00 -1.2169107281911440e-04 
4.9146671535077083e-02 0.0000000000000000e+00 -1.1067405535229243e-03 
4.9146671601617321e-02 0.0000000000000000e+00 -1.1067405643221076e-03 
4.9946398165091145e-02 0.0000000000000000e+00 -1.8661723816428919e-03 
4.9946398148266201e-02 0.0000000000000000e+00 -1.8661723740537801e-03 
4.9885462497690401e-02 0.0000000000000000e+00 -2.4080261668577821e-03 
4.9885462479913031e-02 0.0000000000000000e+00 -2.4080261295147598e-03 
4.9219930064118712e-02 0.0000000000000000e+00 -2.7486178235212296e-03 
4.9219930102751802e-02 0.0000000000000000e+00 -2.7486177945072500e-03 
4.8218969085710169e-02 0.0000000000000000e+00 -2.8902208359912482e-03 
4.8218969012793982e-02 0.0000000000000000e+00 -2.8902208606271570e-03 
4.7210778785513711e-02 0.0000000000000000e+00 -2.9143403826233680e-03 
4.7210778408808995e-02 0.0000000000000000e+00 -2.9143404546615385e-03 
4.7210707957080517e-02 0.0000000000000000e+00 -2.4901460547352649e-03 
4.7210707653086957e-02 0.0000000000000000e+00 -2.4901460671770200e-03 
4.7209386999843436e-02 0.0000000000000000e+00 -1.8799662301398233e-03 
4.7209386799183135e-02 0.0000000000000000e+00 -1.8799662046382990e-03 
4.7195154771726165e-02 0.0000000000000000e+00 -1.4682280943350270e-03 
4.7195154676634377e-02 0.0000000000000000e+00 -1.4682280673627107e-03 
0.0000000000000000e+00 0.0000000000000000e+00 0.0000000000000000e+00 
0.0000000000000000e+00 0.0000000000000000e+00 0.0000000000000000e+00 
1.9402220732820565e-03 0.0000000000000000e+00 -2.0200167412613105e-03 
1.9402219788294572e-03 0.0000000000000000e+00 -2.0200167327832598e-03 
5.7095264248836980e-03 0.0000000000000000e+00 -3.6362808712336737e-03 
5.7095264172777136e-03 0.0000000000000000e+00 -3.6362808723117094e-03 
1.1113730254039745e-02 0.0000000000000000e+00 -4.9651263615115735e-03 
1.1113730286017955e-02 0.0000000000000000e+00 -4.9651263477817308e-03 
1.7754600687464102e-02 0.0000000000000000e+00 -5.9946936669236983e-03 
1.7754600695326323e-02 0.0000000000000000e+00 -5.9946936559234897e-03 
2.5098558760538257e-02 0.0000000000000000e+00 -6.5648050351147270e-03 
2.5098558775892777e-02 0.0000000000000000e+00 -6.5648050563617832e-03 
3.2270473113686998e-02 0.0000000000000000e+00 -6.5498227121161502e-03 
3.2270473183737117e-02 0.0000000000000000e+00 -6.5498227505753712e-03 
3.8499713975114765e-02 0.0000000000000000e+00 -6.0459455739024399e-03 
3.8499714004718064e-02 0.0000000000000000e+00 -6.0459455830834292e-03 
4.3461565047186429e-02 0.0000000000000000e+00 -5.2640825120929494e-03 
4.3461564886398289e-02 0.0000000000000000e+00 -5.2640824868471145e-03 
4.7022497183155224e-02 0.0000000000000000e+00 -4.3182253150428774e-03 
4.7022496868919038e-02 0.0000000000000000e+00 -4.3182253014124143e-03 
4.9096946119884917e-02 0.0000000000000000e+00 -3.3668547148189569e-03 
4.9096945890708503e-02 0.0000000000000000e+00 -3.3668547348151530e-03 
4.9925863354063668e-02 0.0000000000000000e+00 -2.5810835511785222e-03 
4.9925863330646372e-02 0.0000000000000000e+00 -2.5810835579520618e-03 
4.9869002344528075e-02 0.0000000000000000e+00 -2.0079280940303807e-03 
4.9869002373810790e-02 0.0000000000000000e+00 -2.0079280403554924e-03 
4.9203943434847727e-02 0.0000000000000000e+00 -1.6512380095126838e-03 
4.9203943345043924e-02 0.0000000000000000e+00 -1.6512379222729206e-03 
4.8202844715359926e-02 0.0000000000000000e+00 -1.4997758639066572e-03 
4.8202844602851722e-02 0.0000000000000000e+00 -1.4997758169915366e-03 

