# vtk DataFile Version 2.0

ASCII

DATASET UNSTRUCTURED_GRID

POINTS 33 float 

-5.0000000000000003e-02  1.4999999999999997e-01  3.3333333335000000e-02
-5.0000000000000003e-02  1.4999999999999999e-01  9.9999999985000018e-02
-5.0000000000000003e-02  1.4999999999999997e-01  1.6666666665000002e-01
-5.0000000000000003e-02  1.4999999999999999e-01  2.3333333334999998e-01
-5.0000000000000003e-02  1.4999999999999997e-01  2.9999999999999993e-01
-5.0000000000000003e-02  1.4999999999999997e-01  3.6666666665000003e-01
-5.0000000000000003e-02  1.4999999999999999e-01  4.3333333335000002e-01
-5.0000000000000003e-02  1.4999999999999997e-01  5.0000000000000000e-01
-5.0000000000000003e-02  1.4999999999999999e-01  5.6666666664999987e-01
-5.0000000000000003e-02  1.4999999999999999e-01  6.3333333334999986e-01
-5.0000000000000003e-02  1.4999999999999997e-01  6.9999999999999984e-01
-5.0000000000000003e-02  1.4999999999999999e-01  7.6666666664999994e-01
-4.9999999999999996e-02  1.4999999999999999e-01  8.3333333334999982e-01
-5.0000000000000003e-02  1.4999999999999997e-01  8.9999999999999991e-01
-5.0000000000000003e-02  1.4999999999999999e-01  9.6666666664999990e-01
-3.3333333335000000e-02  1.4999999999999997e-01  9.9999999999999978e-01
0.0000000000000000e+00  1.4999999999999997e-01  1.0000000000000000e+00
3.3333333335000007e-02  1.4999999999999999e-01  1.0000000000000000e+00
5.0000000000000003e-02  1.4999999999999997e-01  3.3333333335000000e-02
5.0000000000000003e-02  1.4999999999999999e-01  9.9999999985000004e-02
5.0000000000000003e-02  1.4999999999999999e-01  1.6666666664999999e-01
5.0000000000000003e-02  1.5000000000000002e-01  2.3333333334999998e-01
5.0000000000000003e-02  1.4999999999999997e-01  2.9999999999999993e-01
5.0000000000000003e-02  1.4999999999999997e-01  3.6666666665000003e-01
5.0000000000000003e-02  1.5000000000000002e-01  4.3333333334999991e-01
5.0000000000000003e-02  1.4999999999999997e-01  5.0000000000000000e-01
5.0000000000000003e-02  1.5000000000000002e-01  5.6666666664999987e-01
5.0000000000000003e-02  1.5000000000000002e-01  6.3333333334999997e-01
5.0000000000000003e-02  1.4999999999999997e-01  6.9999999999999984e-01
5.0000000000000003e-02  1.4999999999999999e-01  7.6666666664999994e-01
5.0000000000000003e-02  1.5000000000000002e-01  8.3333333334999993e-01
5.0000000000000010e-02  1.4999999999999997e-01  8.9999999999999991e-01
5.0000000000000003e-02  1.5000000000000002e-01  9.6666666664999990e-01

CELLS 0 0


CELL_TYPES 0


POINT_DATA 33

VECTORS VertexNormals float

0.0000000000000000e+00 0.0000000000000000e+00 0.0000000000000000e+00 
0.0000000000000000e+00 0.0000000000000000e+00 0.0000000000000000e+00 
0.0000000000000000e+00 0.0000000000000000e+00 0.0000000000000000e+00 
0.0000000000000000e+00 0.0000000000000000e+00 0.0000000000000000e+00 
0.0000000000000000e+00 0.0000000000000000e+00 0.0000000000000000e+00 
0.0000000000000000e+00 0.0000000000000000e+00 0.0000000000000000e+00 
0.0000000000000000e+00 0.0000000000000000e+00 0.0000000000000000e+00 
0.0000000000000000e+00 0.0000000000000000e+00 0.0000000000000000e+00 
0.0000000000000000e+00 0.0000000000000000e+00 0.0000000000000000e+00 
0.0000000000000000e+00 0.0000000000000000e+00 0.0000000000000000e+00 
0.0000000000000000e+00 0.0000000000000000e+00 0.0000000000000000e+00 
0.0000000000000000e+00 0.0000000000000000e+00 0.0000000000000000e+00 
0.0000000000000000e+00 0.0000000000000000e+00 0.0000000000000000e+00 
0.0000000000000000e+00 0.0000000000000000e+00 0.0000000000000000e+00 
0.0000000000000000e+00 0.0000000000000000e+00 0.0000000000000000e+00 
0.0000000000000000e+00 0.0000000000000000e+00 0.0000000000000000e+00 
0.0000000000000000e+00 0.0000000000000000e+00 0.0000000000000000e+00 
0.0000000000000000e+00 0.0000000000000000e+00 0.0000000000000000e+00 
0.0000000000000000e+00 0.0000000000000000e+00 0.0000000000000000e+00 
0.0000000000000000e+00 0.0000000000000000e+00 0.0000000000000000e+00 
0.0000000000000000e+00 0.0000000000000000e+00 0.0000000000000000e+00 
0.0000000000000000e+00 0.0000000000000000e+00 0.0000000000000000e+00 
0.0000000000000000e+00 0.0000000000000000e+00 0.0000000000000000e+00 
0.0000000000000000e+00 0.0000000000000000e+00 0.0000000000000000e+00 
0.0000000000000000e+00 0.0000000000000000e+00 0.0000000000000000e+00 
0.0000000000000000e+00 0.0000000000000000e+00 0.0000000000000000e+00 
0.0000000000000000e+00 0.0000000000000000e+00 0.0000000000000000e+00 
0.0000000000000000e+00 0.0000000000000000e+00 0.0000000000000000e+00 
0.0000000000000000e+00 0.0000000000000000e+00 0.0000000000000000e+00 
0.0000000000000000e+00 0.0000000000000000e+00 0.0000000000000000e+00 
0.0000000000000000e+00 0.0000000000000000e+00 0.0000000000000000e+00 
0.0000000000000000e+00 0.0000000000000000e+00 0.0000000000000000e+00 
0.0000000000000000e+00 0.0000000000000000e+00 0.0000000000000000e+00 

VECTORS Forces0 float
2.2610851289877778e+00 1.9531019525057484e-22 -5.1929920041875084e-02 
2.2458565258043781e+00 2.6970627295708714e-21 -9.2556669821952445e-02 
2.2232144131864011e+00 -3.3085567278169465e-18 -1.2201775288511643e-01 
2.1936578277549330e+00 -1.5778622139333671e-19 -1.3130145738558135e-01 
2.1598678770983946e+00 3.0872810792036538e-18 -1.2564778818785791e-01 
2.1212732313150418e+00 -7.1880489261107098e-19 -1.0873685053689083e-01 
2.0771733367704135e+00 2.5030380990250365e-18 -8.3580399108127104e-02 
2.0260084358580492e+00 8.7358274628464475e-22 -5.4169526828946844e-02 
1.9644900139737924e+00 -1.6002237014323308e-18 -2.4135685405437649e-02 
1.8863354996241410e+00 -1.0076150707302235e-20 2.4668753772286974e-03 
1.7830721135415433e+00 -1.5140139487803393e-19 2.2287656906923109e-02 
1.6380207435559813e+00 5.2740794585516740e-23 3.0872695194134440e-02 
1.4235849568833205e+00 -1.6172571901643548e-18 3.4169023495278290e-02 
1.0825728678244380e+00 -4.4522101839506986e-22 3.5283961016715409e-02 
4.1560722688792973e-01 3.5818513823668879e-23 2.0353109374908866e-02 
-4.7137071749436543e-02 4.9072968856067642e-22 1.7693566599066988e+00 
-4.8539269994833927e-02 2.6315941760572327e-19 1.5651839187841623e+00 
-3.4620161866126729e-02 8.0625834676704116e-19 1.2557682343693803e+00 
1.8594098262989247e+00 -1.1754943508222875e-38 -4.0815526904621695e-02 
1.8718095448392058e+00 -9.5726586063021433e-19 -7.7704408255288807e-02 
1.8914352916634996e+00 2.2553116146893851e-18 -1.0378258663033198e-01 
1.9211537764683544e+00 -1.6306282662686456e-18 -1.1486349331949579e-01 
1.9621211233498470e+00 -1.6400775451093325e-18 -1.1368659428600986e-01 
2.0174312933961618e+00 1.7333550918393180e-21 -1.0267047292693837e-01 
2.0869434740870969e+00 1.6619746544922621e-18 -8.3319009218742357e-02 
2.1664392658766860e+00 -2.4537099985713461e-23 -5.7273389824402526e-02 
2.2475687004567844e+00 -3.8361201461851914e-23 -2.7320892483391746e-02 
2.3169316350578599e+00 1.2675329117268182e-23 2.6206028655524844e-03 
2.3608849068341753e+00 1.9804806469683328e-19 2.7925725772773885e-02 
2.3721227884796439e+00 1.2513401520660096e-18 4.1925977636279359e-02 
2.3493065305567100e+00 2.0427310085217695e-18 5.1194115195042418e-02 
2.2844639286495374e+00 2.0286307260314099e-18 6.3535578745777754e-02 
2.1699940926340280e+00 1.6303752275169621e-18 6.7157901301962739e-02 

