# vtk DataFile Version 2.0

ASCII

DATASET UNSTRUCTURED_GRID

POINTS 33 double 

-5.0000000000000003e-02  1.4999999999999997e-01  3.3333333335000000e-02
-5.0000000000000003e-02  1.4999999999999999e-01  9.9999999985000018e-02
-5.0000000000000003e-02  1.4999999999999997e-01  1.6666666665000002e-01
-5.0000000000000003e-02  1.4999999999999999e-01  2.3333333334999998e-01
-5.0000000000000003e-02  1.4999999999999997e-01  2.9999999999999993e-01
-5.0000000000000003e-02  1.4999999999999997e-01  3.6666666665000003e-01
-5.0000000000000003e-02  1.4999999999999999e-01  4.3333333335000002e-01
-5.0000000000000003e-02  1.4999999999999997e-01  5.0000000000000000e-01
-5.0000000000000003e-02  1.4999999999999999e-01  5.6666666664999987e-01
-5.0000000000000003e-02  1.4999999999999999e-01  6.3333333334999986e-01
-5.0000000000000003e-02  1.4999999999999997e-01  6.9999999999999984e-01
-5.0000000000000003e-02  1.4999999999999999e-01  7.6666666664999994e-01
-4.9999999999999996e-02  1.4999999999999999e-01  8.3333333334999982e-01
-5.0000000000000003e-02  1.4999999999999997e-01  8.9999999999999991e-01
-5.0000000000000003e-02  1.4999999999999999e-01  9.6666666664999990e-01
-3.3333333335000000e-02  1.4999999999999997e-01  9.9999999999999978e-01
0.0000000000000000e+00  1.4999999999999997e-01  1.0000000000000000e+00
3.3333333335000007e-02  1.4999999999999999e-01  1.0000000000000000e+00
5.0000000000000003e-02  1.4999999999999997e-01  3.3333333335000000e-02
5.0000000000000003e-02  1.4999999999999999e-01  9.9999999985000004e-02
5.0000000000000003e-02  1.4999999999999999e-01  1.6666666664999999e-01
5.0000000000000003e-02  1.5000000000000002e-01  2.3333333334999998e-01
5.0000000000000003e-02  1.4999999999999997e-01  2.9999999999999993e-01
5.0000000000000003e-02  1.4999999999999997e-01  3.6666666665000003e-01
5.0000000000000003e-02  1.5000000000000002e-01  4.3333333334999991e-01
5.0000000000000003e-02  1.4999999999999997e-01  5.0000000000000000e-01
5.0000000000000003e-02  1.5000000000000002e-01  5.6666666664999987e-01
5.0000000000000003e-02  1.5000000000000002e-01  6.3333333334999997e-01
5.0000000000000003e-02  1.4999999999999997e-01  6.9999999999999984e-01
5.0000000000000003e-02  1.4999999999999999e-01  7.6666666664999994e-01
5.0000000000000003e-02  1.5000000000000002e-01  8.3333333334999993e-01
5.0000000000000010e-02  1.4999999999999997e-01  8.9999999999999991e-01
5.0000000000000003e-02  1.5000000000000002e-01  9.6666666664999990e-01

CELLS 0 0


CELL_TYPES 0


POINT_DATA 33

VECTORS VertexNormals double

0.0000000000000000e+00 0.0000000000000000e+00 0.0000000000000000e+00 
0.0000000000000000e+00 0.0000000000000000e+00 0.0000000000000000e+00 
0.0000000000000000e+00 0.0000000000000000e+00 0.0000000000000000e+00 
0.0000000000000000e+00 0.0000000000000000e+00 0.0000000000000000e+00 
0.0000000000000000e+00 0.0000000000000000e+00 0.0000000000000000e+00 
0.0000000000000000e+00 0.0000000000000000e+00 0.0000000000000000e+00 
0.0000000000000000e+00 0.0000000000000000e+00 0.0000000000000000e+00 
0.0000000000000000e+00 0.0000000000000000e+00 0.0000000000000000e+00 
0.0000000000000000e+00 0.0000000000000000e+00 0.0000000000000000e+00 
0.0000000000000000e+00 0.0000000000000000e+00 0.0000000000000000e+00 
0.0000000000000000e+00 0.0000000000000000e+00 0.0000000000000000e+00 
0.0000000000000000e+00 0.0000000000000000e+00 0.0000000000000000e+00 
0.0000000000000000e+00 0.0000000000000000e+00 0.0000000000000000e+00 
0.0000000000000000e+00 0.0000000000000000e+00 0.0000000000000000e+00 
0.0000000000000000e+00 0.0000000000000000e+00 0.0000000000000000e+00 
0.0000000000000000e+00 0.0000000000000000e+00 0.0000000000000000e+00 
0.0000000000000000e+00 0.0000000000000000e+00 0.0000000000000000e+00 
0.0000000000000000e+00 0.0000000000000000e+00 0.0000000000000000e+00 
0.0000000000000000e+00 0.0000000000000000e+00 0.0000000000000000e+00 
0.0000000000000000e+00 0.0000000000000000e+00 0.0000000000000000e+00 
0.0000000000000000e+00 0.0000000000000000e+00 0.0000000000000000e+00 
0.0000000000000000e+00 0.0000000000000000e+00 0.0000000000000000e+00 
0.0000000000000000e+00 0.0000000000000000e+00 0.0000000000000000e+00 
0.0000000000000000e+00 0.0000000000000000e+00 0.0000000000000000e+00 
0.0000000000000000e+00 0.0000000000000000e+00 0.0000000000000000e+00 
0.0000000000000000e+00 0.0000000000000000e+00 0.0000000000000000e+00 
0.0000000000000000e+00 0.0000000000000000e+00 0.0000000000000000e+00 
0.0000000000000000e+00 0.0000000000000000e+00 0.0000000000000000e+00 
0.0000000000000000e+00 0.0000000000000000e+00 0.0000000000000000e+00 
0.0000000000000000e+00 0.0000000000000000e+00 0.0000000000000000e+00 
0.0000000000000000e+00 0.0000000000000000e+00 0.0000000000000000e+00 
0.0000000000000000e+00 0.0000000000000000e+00 0.0000000000000000e+00 
0.0000000000000000e+00 0.0000000000000000e+00 0.0000000000000000e+00 

VECTORS Forces0 double
2.3037727892852047e+00 -2.9387358770557188e-39 -4.6388559732844573e-02 
2.2888195620400875e+00 1.6658963738483199e-18 -7.8683560683429674e-02 
2.2663556305823089e+00 1.6472937771447550e-18 -9.9495543650250678e-02 
2.2372225927987541e+00 1.6329152454544951e-18 -1.0278459450024076e-01 
2.2039106822009771e+00 1.6230277013536761e-18 -9.2584718311444131e-02 
2.1662195440348642e+00 -2.0394377840802912e-21 -7.2866147528114406e-02 
2.1217770870729682e+00 3.2120938394011137e-18 -4.7996809985725773e-02 
2.0708712930902138e+00 -1.7619452094793196e-19 -2.0022495251588206e-02 
2.0083856589588338e+00 1.2713135874521316e-21 2.8981479360444319e-03 
1.9275528069025671e+00 -1.4477181446666623e-18 2.2582680731573782e-02 
1.8226485101050687e+00 -4.1596870626195673e-22 3.4560832559412072e-02 
1.6712287240480539e+00 1.6353414366690952e-18 2.9319687105599970e-02 
1.4328202901065481e+00 2.0342959309149666e-24 1.5122681961451383e-02 
1.0459588142871847e+00 3.2664513332230854e-18 7.7296057882923000e-03 
3.3040448180167487e-01 -1.6259720546646136e-18 8.1127585207027893e-03 
1.6945403842192181e-03 2.3948089697107407e-18 1.9283937559907429e+00 
-2.0007605056377711e-04 -1.5954464774990826e-18 1.7148191530337786e+00 
3.3490346004324597e-05 3.9130577346239612e-24 1.3700960181921082e+00 
1.9635710773115236e+00 1.5840920653447501e-18 -3.7575131310334089e-02 
1.9795091096106896e+00 1.6053489868361631e-18 -6.8411589201529024e-02 
2.0023379897231233e+00 1.6198392970675272e-18 -8.8050519049076084e-02 
2.0347882567936644e+00 1.6347637201547320e-18 -9.3276176756935392e-02 
2.0792167501862835e+00 -1.9550096486809894e-21 -8.7091892012126221e-02 
2.1378578511611659e+00 -1.7692928472259408e-22 -7.1867204388414083e-02 
2.2127322348424054e+00 1.6604387869582232e-18 -4.9905236948408059e-02 
2.3019554060718432e+00 1.6610298881677259e-18 -2.2122153390901875e-02 
2.3994564705652337e+00 1.6607655058688824e-18 3.4681066879345968e-03 
2.4935885091479513e+00 1.6525098944013313e-18 2.8528049183117927e-02 
2.5636088304472189e+00 4.3202635496755305e-19 4.7156017228549028e-02 
2.5915379637744116e+00 1.6277927858351849e-18 4.2477974223901212e-02 
2.5720143785448264e+00 1.0950860111165374e-19 2.1179278496762217e-02 
2.4996206201897833e+00 1.6558928102658418e-18 6.6959037323821233e-03 
2.3623377788295086e+00 -1.1319319902230556e-22 3.7880729018191163e-03 

