# vtk DataFile Version 2.0

ASCII

DATASET UNSTRUCTURED_GRID

POINTS 33 float 

-5.0000000000000003e-02  1.4999999999999997e-01  3.3333333335000000e-02
-5.0000000000000003e-02  1.4999999999999999e-01  9.9999999985000018e-02
-5.0000000000000003e-02  1.4999999999999997e-01  1.6666666665000002e-01
-5.0000000000000003e-02  1.4999999999999999e-01  2.3333333334999998e-01
-5.0000000000000003e-02  1.4999999999999997e-01  2.9999999999999993e-01
-5.0000000000000003e-02  1.4999999999999997e-01  3.6666666665000003e-01
-5.0000000000000003e-02  1.4999999999999999e-01  4.3333333335000002e-01
-5.0000000000000003e-02  1.4999999999999997e-01  5.0000000000000000e-01
-5.0000000000000003e-02  1.4999999999999999e-01  5.6666666664999987e-01
-5.0000000000000003e-02  1.4999999999999999e-01  6.3333333334999986e-01
-5.0000000000000003e-02  1.4999999999999997e-01  6.9999999999999984e-01
-5.0000000000000003e-02  1.4999999999999999e-01  7.6666666664999994e-01
-4.9999999999999996e-02  1.4999999999999999e-01  8.3333333334999982e-01
-5.0000000000000003e-02  1.4999999999999997e-01  8.9999999999999991e-01
-5.0000000000000003e-02  1.4999999999999999e-01  9.6666666664999990e-01
-3.3333333335000000e-02  1.4999999999999997e-01  9.9999999999999978e-01
0.0000000000000000e+00  1.4999999999999997e-01  1.0000000000000000e+00
3.3333333335000007e-02  1.4999999999999999e-01  1.0000000000000000e+00
5.0000000000000003e-02  1.4999999999999997e-01  3.3333333335000000e-02
5.0000000000000003e-02  1.4999999999999999e-01  9.9999999985000004e-02
5.0000000000000003e-02  1.4999999999999999e-01  1.6666666664999999e-01
5.0000000000000003e-02  1.5000000000000002e-01  2.3333333334999998e-01
5.0000000000000003e-02  1.4999999999999997e-01  2.9999999999999993e-01
5.0000000000000003e-02  1.4999999999999997e-01  3.6666666665000003e-01
5.0000000000000003e-02  1.5000000000000002e-01  4.3333333334999991e-01
5.0000000000000003e-02  1.4999999999999997e-01  5.0000000000000000e-01
5.0000000000000003e-02  1.5000000000000002e-01  5.6666666664999987e-01
5.0000000000000003e-02  1.5000000000000002e-01  6.3333333334999997e-01
5.0000000000000003e-02  1.4999999999999997e-01  6.9999999999999984e-01
5.0000000000000003e-02  1.4999999999999999e-01  7.6666666664999994e-01
5.0000000000000003e-02  1.5000000000000002e-01  8.3333333334999993e-01
5.0000000000000010e-02  1.4999999999999997e-01  8.9999999999999991e-01
5.0000000000000003e-02  1.5000000000000002e-01  9.6666666664999990e-01

CELLS 0 0


CELL_TYPES 0


POINT_DATA 33

VECTORS VertexNormals float

0.0000000000000000e+00 0.0000000000000000e+00 0.0000000000000000e+00 
0.0000000000000000e+00 0.0000000000000000e+00 0.0000000000000000e+00 
0.0000000000000000e+00 0.0000000000000000e+00 0.0000000000000000e+00 
0.0000000000000000e+00 0.0000000000000000e+00 0.0000000000000000e+00 
0.0000000000000000e+00 0.0000000000000000e+00 0.0000000000000000e+00 
0.0000000000000000e+00 0.0000000000000000e+00 0.0000000000000000e+00 
0.0000000000000000e+00 0.0000000000000000e+00 0.0000000000000000e+00 
0.0000000000000000e+00 0.0000000000000000e+00 0.0000000000000000e+00 
0.0000000000000000e+00 0.0000000000000000e+00 0.0000000000000000e+00 
0.0000000000000000e+00 0.0000000000000000e+00 0.0000000000000000e+00 
0.0000000000000000e+00 0.0000000000000000e+00 0.0000000000000000e+00 
0.0000000000000000e+00 0.0000000000000000e+00 0.0000000000000000e+00 
0.0000000000000000e+00 0.0000000000000000e+00 0.0000000000000000e+00 
0.0000000000000000e+00 0.0000000000000000e+00 0.0000000000000000e+00 
0.0000000000000000e+00 0.0000000000000000e+00 0.0000000000000000e+00 
0.0000000000000000e+00 0.0000000000000000e+00 0.0000000000000000e+00 
0.0000000000000000e+00 0.0000000000000000e+00 0.0000000000000000e+00 
0.0000000000000000e+00 0.0000000000000000e+00 0.0000000000000000e+00 
0.0000000000000000e+00 0.0000000000000000e+00 0.0000000000000000e+00 
0.0000000000000000e+00 0.0000000000000000e+00 0.0000000000000000e+00 
0.0000000000000000e+00 0.0000000000000000e+00 0.0000000000000000e+00 
0.0000000000000000e+00 0.0000000000000000e+00 0.0000000000000000e+00 
0.0000000000000000e+00 0.0000000000000000e+00 0.0000000000000000e+00 
0.0000000000000000e+00 0.0000000000000000e+00 0.0000000000000000e+00 
0.0000000000000000e+00 0.0000000000000000e+00 0.0000000000000000e+00 
0.0000000000000000e+00 0.0000000000000000e+00 0.0000000000000000e+00 
0.0000000000000000e+00 0.0000000000000000e+00 0.0000000000000000e+00 
0.0000000000000000e+00 0.0000000000000000e+00 0.0000000000000000e+00 
0.0000000000000000e+00 0.0000000000000000e+00 0.0000000000000000e+00 
0.0000000000000000e+00 0.0000000000000000e+00 0.0000000000000000e+00 
0.0000000000000000e+00 0.0000000000000000e+00 0.0000000000000000e+00 
0.0000000000000000e+00 0.0000000000000000e+00 0.0000000000000000e+00 
0.0000000000000000e+00 0.0000000000000000e+00 0.0000000000000000e+00 

VECTORS Forces0 float
3.5118564883137524e+00 -6.2531456072468392e-19 -1.2789629854498749e-01 
3.4956833806369541e+00 5.9317424980227441e-22 -3.0923943243395063e-01 
3.4628021733714496e+00 -1.7463744334932634e-20 -4.9019738665217605e-01 
3.4030411450221267e+00 4.5115695278639502e-18 -6.4322662686401955e-01 
3.3124901332633927e+00 1.7282881988758680e-18 -7.7537183345915606e-01 
3.1921971874029760e+00 1.7437049910612377e-18 -8.8355757155428971e-01 
3.0514792657832959e+00 -4.7019774032891500e-38 -9.6467179183300744e-01 
2.8991385149359403e+00 -6.4073060927690964e-18 -1.0237871609157596e+00 
2.7358591127929572e+00 1.7021978561544608e-18 -1.0658436685630053e+00 
2.5612489560623950e+00 -2.2032803619317037e-22 -1.0859601760466835e+00 
2.3833389067294335e+00 1.6698407766550560e-18 -1.0743896758291582e+00 
2.2094689705518662e+00 -1.6416851096715329e-18 -1.0284217785729033e+00 
2.0332740509379175e+00 -1.1841226171480541e-20 -9.5363384295433862e-01 
1.8274647401217210e+00 -1.5793839106962476e-18 -8.5343688627808856e-01 
1.5291682264893984e+00 6.6438587349696557e-21 -7.1289647020226288e-01 
7.2500261793723153e-02 0.0000000000000000e+00 1.5223281320164347e-01 
-1.5298369938877322e-02 1.4686153333032322e-21 -3.1118165592204126e-02 
-9.3625209447676896e-02 -2.9682852206855488e-19 -1.9588009004907547e-01 
-1.2301964204583611e+00 1.5711425111095704e-21 4.4259493435910950e-02 
-1.2347570257188158e+00 -1.5076269396962845e-18 1.0982546374602027e-01 
-1.2361886781381559e+00 6.5236776214213762e-21 1.7626549715933834e-01 
-1.2307864276578673e+00 -3.5659894914380702e-22 2.3406537828219695e-01 
-1.2172490684608368e+00 2.0923629186903813e-19 2.8703489847802732e-01 
-1.1963642351041677e+00 -1.0022159108109245e-20 3.3396660241074944e-01 
-1.1678625924146435e+00 3.1145091386678648e-18 3.7244635601996667e-01 
-1.1299170610746541e+00 1.7645800326099117e-18 4.0293719686142104e-01 
-1.0829151377124568e+00 4.7877757698111438e-18 4.2657251361325882e-01 
-1.0305731145346149e+00 3.0966562688241140e-18 4.4231146730361004e-01 
-9.7611511197851264e-01 1.3304775561824851e-18 4.4613459372424291e-01 
-9.1979172500010620e-01 -1.6406587503377441e-18 4.3486248423412344e-01 
-8.6011336957846274e-01 1.8807909613156600e-37 4.1074622282631396e-01 
-8.0061987749737085e-01 2.3970584887055564e-18 3.8211853265278567e-01 
-7.5245872110625200e-01 1.8807909613156600e-37 3.5997937480900249e-01 

