# vtk DataFile Version 2.0

ASCII

DATASET UNSTRUCTURED_GRID

POINTS 86 double 

5.0000000000000003e-02  0.0000000000000000e+00  0.0000000000000000e+00
5.0000000000000003e-02  0.0000000000000000e+00  5.0000000000000003e-02
5.0000000000000003e-02  2.9999999999999999e-01  0.0000000000000000e+00
5.0000000000000003e-02  2.9999999999999999e-01  5.0000000000000003e-02
5.0000000000000003e-02  0.0000000000000000e+00  1.0000000000000001e-01
5.0000000000000003e-02  2.9999999999999999e-01  1.0000000000000001e-01
5.0000000000000003e-02  0.0000000000000000e+00  1.4999999999999999e-01
5.0000000000000003e-02  2.9999999999999999e-01  1.4999999999999999e-01
5.0000000000000003e-02  0.0000000000000000e+00  2.0000000000000001e-01
5.0000000000000003e-02  2.9999999999999999e-01  2.0000000000000001e-01
5.0000000000000003e-02  0.0000000000000000e+00  2.5000000000000000e-01
5.0000000000000003e-02  2.9999999999999999e-01  2.5000000000000000e-01
5.0000000000000003e-02  0.0000000000000000e+00  2.9999999999999999e-01
5.0000000000000003e-02  2.9999999999999999e-01  2.9999999999999999e-01
5.0000000000000003e-02  0.0000000000000000e+00  3.4999999999999998e-01
5.0000000000000003e-02  2.9999999999999999e-01  3.4999999999999998e-01
5.0000000000000003e-02  0.0000000000000000e+00  4.0000000000000002e-01
5.0000000000000003e-02  2.9999999999999999e-01  4.0000000000000002e-01
5.0000000000000003e-02  0.0000000000000000e+00  4.5000000000000001e-01
5.0000000000000003e-02  2.9999999999999999e-01  4.5000000000000001e-01
5.0000000000000003e-02  0.0000000000000000e+00  5.0000000000000000e-01
5.0000000000000003e-02  2.9999999999999999e-01  5.0000000000000000e-01
5.0000000000000003e-02  0.0000000000000000e+00  5.5000000000000004e-01
5.0000000000000003e-02  2.9999999999999999e-01  5.5000000000000004e-01
5.0000000000000003e-02  0.0000000000000000e+00  5.9999999999999998e-01
5.0000000000000003e-02  2.9999999999999999e-01  5.9999999999999998e-01
5.0000000000000003e-02  0.0000000000000000e+00  6.5000000000000002e-01
5.0000000000000003e-02  2.9999999999999999e-01  6.5000000000000002e-01
5.0000000000000003e-02  0.0000000000000000e+00  6.9999999999999996e-01
5.0000000000000003e-02  2.9999999999999999e-01  6.9999999999999996e-01
5.0000000000000003e-02  0.0000000000000000e+00  7.5000000000000000e-01
5.0000000000000003e-02  2.9999999999999999e-01  7.5000000000000000e-01
5.0000000000000003e-02  0.0000000000000000e+00  8.0000000000000004e-01
5.0000000000000003e-02  2.9999999999999999e-01  8.0000000000000004e-01
5.0000000000000003e-02  0.0000000000000000e+00  8.4999999999999998e-01
5.0000000000000003e-02  2.9999999999999999e-01  8.4999999999999998e-01
5.0000000000000003e-02  0.0000000000000000e+00  9.0000000000000002e-01
5.0000000000000003e-02  2.9999999999999999e-01  9.0000000000000002e-01
5.0000000000000003e-02  0.0000000000000000e+00  9.4999999999999996e-01
5.0000000000000003e-02  2.9999999999999999e-01  9.4999999999999996e-01
0.0000000000000000e+00  0.0000000000000000e+00  1.0000000000000000e+00
5.0000000000000003e-02  0.0000000000000000e+00  1.0000000000000000e+00
0.0000000000000000e+00  2.9999999999999999e-01  1.0000000000000000e+00
5.0000000000000003e-02  2.9999999999999999e-01  1.0000000000000000e+00
-5.0000000000000003e-02  0.0000000000000000e+00  0.0000000000000000e+00
-5.0000000000000003e-02  0.0000000000000000e+00  5.0000000000000003e-02
-5.0000000000000003e-02  2.9999999999999999e-01  0.0000000000000000e+00
-5.0000000000000003e-02  2.9999999999999999e-01  5.0000000000000003e-02
-5.0000000000000003e-02  0.0000000000000000e+00  1.0000000000000001e-01
-5.0000000000000003e-02  2.9999999999999999e-01  1.0000000000000001e-01
-5.0000000000000003e-02  0.0000000000000000e+00  1.4999999999999999e-01
-5.0000000000000003e-02  2.9999999999999999e-01  1.4999999999999999e-01
-5.0000000000000003e-02  0.0000000000000000e+00  2.0000000000000001e-01
-5.0000000000000003e-02  2.9999999999999999e-01  2.0000000000000001e-01
-5.0000000000000003e-02  0.0000000000000000e+00  2.5000000000000000e-01
-5.0000000000000003e-02  2.9999999999999999e-01  2.5000000000000000e-01
-5.0000000000000003e-02  0.0000000000000000e+00  2.9999999999999999e-01
-5.0000000000000003e-02  2.9999999999999999e-01  2.9999999999999999e-01
-5.0000000000000003e-02  0.0000000000000000e+00  3.4999999999999998e-01
-5.0000000000000003e-02  2.9999999999999999e-01  3.4999999999999998e-01
-5.0000000000000003e-02  0.0000000000000000e+00  4.0000000000000002e-01
-5.0000000000000003e-02  2.9999999999999999e-01  4.0000000000000002e-01
-5.0000000000000003e-02  0.0000000000000000e+00  4.5000000000000001e-01
-5.0000000000000003e-02  2.9999999999999999e-01  4.5000000000000001e-01
-5.0000000000000003e-02  0.0000000000000000e+00  5.0000000000000000e-01
-5.0000000000000003e-02  2.9999999999999999e-01  5.0000000000000000e-01
-5.0000000000000003e-02  0.0000000000000000e+00  5.5000000000000004e-01
-5.0000000000000003e-02  2.9999999999999999e-01  5.5000000000000004e-01
-5.0000000000000003e-02  0.0000000000000000e+00  5.9999999999999998e-01
-5.0000000000000003e-02  2.9999999999999999e-01  5.9999999999999998e-01
-5.0000000000000003e-02  0.0000000000000000e+00  6.5000000000000002e-01
-5.0000000000000003e-02  2.9999999999999999e-01  6.5000000000000002e-01
-5.0000000000000003e-02  0.0000000000000000e+00  6.9999999999999996e-01
-5.0000000000000003e-02  2.9999999999999999e-01  6.9999999999999996e-01
-5.0000000000000003e-02  0.0000000000000000e+00  7.5000000000000000e-01
-5.0000000000000003e-02  2.9999999999999999e-01  7.5000000000000000e-01
-5.0000000000000003e-02  0.0000000000000000e+00  8.0000000000000004e-01
-5.0000000000000003e-02  2.9999999999999999e-01  8.0000000000000004e-01
-5.0000000000000003e-02  0.0000000000000000e+00  8.4999999999999998e-01
-5.0000000000000003e-02  2.9999999999999999e-01  8.4999999999999998e-01
-5.0000000000000003e-02  0.0000000000000000e+00  9.0000000000000002e-01
-5.0000000000000003e-02  2.9999999999999999e-01  9.0000000000000002e-01
-5.0000000000000003e-02  0.0000000000000000e+00  9.4999999999999996e-01
-5.0000000000000003e-02  2.9999999999999999e-01  9.4999999999999996e-01
-5.0000000000000003e-02  0.0000000000000000e+00  1.0000000000000000e+00
-5.0000000000000003e-02  2.9999999999999999e-01  1.0000000000000000e+00

CELLS 0 0


CELL_TYPES 0


POINT_DATA 86

VECTORS VertexNormals double

0.0000000000000000e+00 0.0000000000000000e+00 0.0000000000000000e+00 
0.0000000000000000e+00 0.0000000000000000e+00 0.0000000000000000e+00 
0.0000000000000000e+00 0.0000000000000000e+00 0.0000000000000000e+00 
0.0000000000000000e+00 0.0000000000000000e+00 0.0000000000000000e+00 
0.0000000000000000e+00 0.0000000000000000e+00 0.0000000000000000e+00 
0.0000000000000000e+00 0.0000000000000000e+00 0.0000000000000000e+00 
0.0000000000000000e+00 0.0000000000000000e+00 0.0000000000000000e+00 
0.0000000000000000e+00 0.0000000000000000e+00 0.0000000000000000e+00 
0.0000000000000000e+00 0.0000000000000000e+00 0.0000000000000000e+00 
0.0000000000000000e+00 0.0000000000000000e+00 0.0000000000000000e+00 
0.0000000000000000e+00 0.0000000000000000e+00 0.0000000000000000e+00 
0.0000000000000000e+00 0.0000000000000000e+00 0.0000000000000000e+00 
0.0000000000000000e+00 0.0000000000000000e+00 0.0000000000000000e+00 
0.0000000000000000e+00 0.0000000000000000e+00 0.0000000000000000e+00 
0.0000000000000000e+00 0.0000000000000000e+00 0.0000000000000000e+00 
0.0000000000000000e+00 0.0000000000000000e+00 0.0000000000000000e+00 
0.0000000000000000e+00 0.0000000000000000e+00 0.0000000000000000e+00 
0.0000000000000000e+00 0.0000000000000000e+00 0.0000000000000000e+00 
0.0000000000000000e+00 0.0000000000000000e+00 0.0000000000000000e+00 
0.0000000000000000e+00 0.0000000000000000e+00 0.0000000000000000e+00 
0.0000000000000000e+00 0.0000000000000000e+00 0.0000000000000000e+00 
0.0000000000000000e+00 0.0000000000000000e+00 0.0000000000000000e+00 
0.0000000000000000e+00 0.0000000000000000e+00 0.0000000000000000e+00 
0.0000000000000000e+00 0.0000000000000000e+00 0.0000000000000000e+00 
0.0000000000000000e+00 0.0000000000000000e+00 0.0000000000000000e+00 
0.0000000000000000e+00 0.0000000000000000e+00 0.0000000000000000e+00 
0.0000000000000000e+00 0.0000000000000000e+00 0.0000000000000000e+00 
0.0000000000000000e+00 0.0000000000000000e+00 0.0000000000000000e+00 
0.0000000000000000e+00 0.0000000000000000e+00 0.0000000000000000e+00 
0.0000000000000000e+00 0.0000000000000000e+00 0.0000000000000000e+00 
0.0000000000000000e+00 0.0000000000000000e+00 0.0000000000000000e+00 
0.0000000000000000e+00 0.0000000000000000e+00 0.0000000000000000e+00 
0.0000000000000000e+00 0.0000000000000000e+00 0.0000000000000000e+00 
0.0000000000000000e+00 0.0000000000000000e+00 0.0000000000000000e+00 
0.0000000000000000e+00 0.0000000000000000e+00 0.0000000000000000e+00 
0.0000000000000000e+00 0.0000000000000000e+00 0.0000000000000000e+00 
0.0000000000000000e+00 0.0000000000000000e+00 0.0000000000000000e+00 
0.0000000000000000e+00 0.0000000000000000e+00 0.0000000000000000e+00 
0.0000000000000000e+00 0.0000000000000000e+00 0.0000000000000000e+00 
0.0000000000000000e+00 0.0000000000000000e+00 0.0000000000000000e+00 
0.0000000000000000e+00 0.0000000000000000e+00 0.0000000000000000e+00 
0.0000000000000000e+00 0.0000000000000000e+00 0.0000000000000000e+00 
0.0000000000000000e+00 0.0000000000000000e+00 0.0000000000000000e+00 
0.0000000000000000e+00 0.0000000000000000e+00 0.0000000000000000e+00 
0.0000000000000000e+00 0.0000000000000000e+00 0.0000000000000000e+00 
0.0000000000000000e+00 0.0000000000000000e+00 0.0000000000000000e+00 
0.0000000000000000e+00 0.0000000000000000e+00 0.0000000000000000e+00 
0.0000000000000000e+00 0.0000000000000000e+00 0.0000000000000000e+00 
0.0000000000000000e+00 0.0000000000000000e+00 0.0000000000000000e+00 
0.0000000000000000e+00 0.0000000000000000e+00 0.0000000000000000e+00 
0.0000000000000000e+00 0.0000000000000000e+00 0.0000000000000000e+00 
0.0000000000000000e+00 0.0000000000000000e+00 0.0000000000000000e+00 
0.0000000000000000e+00 0.0000000000000000e+00 0.0000000000000000e+00 
0.0000000000000000e+00 0.0000000000000000e+00 0.0000000000000000e+00 
0.0000000000000000e+00 0.0000000000000000e+00 0.0000000000000000e+00 
0.0000000000000000e+00 0.0000000000000000e+00 0.0000000000000000e+00 
0.0000000000000000e+00 0.0000000000000000e+00 0.0000000000000000e+00 
0.0000000000000000e+00 0.0000000000000000e+00 0.0000000000000000e+00 
0.0000000000000000e+00 0.0000000000000000e+00 0.0000000000000000e+00 
0.0000000000000000e+00 0.0000000000000000e+00 0.0000000000000000e+00 
0.0000000000000000e+00 0.0000000000000000e+00 0.0000000000000000e+00 
0.0000000000000000e+00 0.0000000000000000e+00 0.0000000000000000e+00 
0.0000000000000000e+00 0.0000000000000000e+00 0.0000000000000000e+00 
0.0000000000000000e+00 0.0000000000000000e+00 0.0000000000000000e+00 
0.0000000000000000e+00 0.0000000000000000e+00 0.0000000000000000e+00 
0.0000000000000000e+00 0.0000000000000000e+00 0.0000000000000000e+00 
0.0000000000000000e+00 0.0000000000000000e+00 0.0000000000000000e+00 
0.0000000000000000e+00 0.0000000000000000e+00 0.0000000000000000e+00 
0.0000000000000000e+00 0.0000000000000000e+00 0.0000000000000000e+00 
0.0000000000000000e+00 0.0000000000000000e+00 0.0000000000000000e+00 
0.0000000000000000e+00 0.0000000000000000e+00 0.0000000000000000e+00 
0.0000000000000000e+00 0.0000000000000000e+00 0.0000000000000000e+00 
0.0000000000000000e+00 0.0000000000000000e+00 0.0000000000000000e+00 
0.0000000000000000e+00 0.0000000000000000e+00 0.0000000000000000e+00 
0.0000000000000000e+00 0.0000000000000000e+00 0.0000000000000000e+00 
0.0000000000000000e+00 0.0000000000000000e+00 0.0000000000000000e+00 
0.0000000000000000e+00 0.0000000000000000e+00 0.0000000000000000e+00 
0.0000000000000000e+00 0.0000000000000000e+00 0.0000000000000000e+00 
0.0000000000000000e+00 0.0000000000000000e+00 0.0000000000000000e+00 
0.0000000000000000e+00 0.0000000000000000e+00 0.0000000000000000e+00 
0.0000000000000000e+00 0.0000000000000000e+00 0.0000000000000000e+00 
0.0000000000000000e+00 0.0000000000000000e+00 0.0000000000000000e+00 
0.0000000000000000e+00 0.0000000000000000e+00 0.0000000000000000e+00 
0.0000000000000000e+00 0.0000000000000000e+00 0.0000000000000000e+00 
0.0000000000000000e+00 0.0000000000000000e+00 0.0000000000000000e+00 
0.0000000000000000e+00 0.0000000000000000e+00 0.0000000000000000e+00 

VECTORS Forces0 double
2.0119809615002238e-01 0.0000000000000000e+00 1.7840874950568086e-02 
6.4475986625917769e-01 0.0000000000000000e+00 -2.7040959668276847e-02 
2.0119809706634084e-01 0.0000000000000000e+00 1.7840875120294912e-02 
6.4475986644243100e-01 0.0000000000000000e+00 -2.7040959804206691e-02 
6.3120590239282837e-01 0.0000000000000000e+00 -6.4130287193029933e-03 
6.3120590184428371e-01 0.0000000000000000e+00 -6.4130283408268748e-03 
5.7853757992044974e-01 0.0000000000000000e+00 -3.2308692250353774e-03 
5.7853758010350798e-01 0.0000000000000000e+00 -3.2308691199361616e-03 
5.9731950844682169e-01 0.0000000000000000e+00 -1.5749040584078604e-03 
5.9731950844651571e-01 0.0000000000000000e+00 -1.5749039894963990e-03 
6.0015439033243656e-01 0.0000000000000000e+00 -4.0424076550834426e-04 
6.0015439161511019e-01 0.0000000000000000e+00 -4.0424086846933989e-04 
7.0938781526259431e-01 0.0000000000000000e+00 -2.6691616117605033e-05 
7.0938781709365861e-01 0.0000000000000000e+00 -2.6691649807502747e-05 
6.5748613842295733e-01 0.0000000000000000e+00 1.5248868429139232e-04 
6.5748613823904845e-01 0.0000000000000000e+00 1.5248871977065778e-04 
6.9512193446271509e-01 0.0000000000000000e+00 4.1591629532106026e-04 
6.9512193611067541e-01 0.0000000000000000e+00 4.1591629639723760e-04 
7.1642644631496510e-01 0.0000000000000000e+00 6.2161112599600247e-04 
7.1642644668141431e-01 0.0000000000000000e+00 6.2161112673861038e-04 
8.7569458038705572e-01 0.0000000000000000e+00 1.1556719770318105e-03 
8.7569458020350388e-01 0.0000000000000000e+00 1.1556720133478397e-03 
8.3781990216243230e-01 0.0000000000000000e+00 1.7124914051834716e-03 
8.3781990124672212e-01 0.0000000000000000e+00 1.7124915785875240e-03 
9.1154838441894448e-01 0.0000000000000000e+00 2.1196152423891435e-03 
9.1154838496626434e-01 0.0000000000000000e+00 2.1196152434560314e-03 
9.7554260867038411e-01 0.0000000000000000e+00 2.6188383703757605e-03 
9.7554260775520540e-01 0.0000000000000000e+00 2.6188383368316442e-03 
1.2829699519791369e+00 0.0000000000000000e+00 3.6999728575813694e-03 
1.2829699523447158e+00 0.0000000000000000e+00 3.6999727565243468e-03 
1.3216672003912953e+00 0.0000000000000000e+00 4.4646350818502954e-03 
1.3216671998434122e+00 0.0000000000000000e+00 4.4646352544562527e-03 
1.4711591806175401e+00 0.0000000000000000e+00 4.6005703983234897e-03 
1.4711591809831559e+00 0.0000000000000000e+00 4.6005703628571488e-03 
1.6171336914052439e+00 0.0000000000000000e+00 6.8969719396747182e-03 
1.6171336925031283e+00 0.0000000000000000e+00 6.8969719744643512e-03 
2.0152686693513839e+00 0.0000000000000000e+00 -3.8536206890132487e-03 
2.0152686691681736e+00 0.0000000000000000e+00 -3.8536207235768177e-03 
2.1102233829002328e+00 0.0000000000000000e+00 4.7448149174473903e-02 
2.1102233829002910e+00 0.0000000000000000e+00 4.7448149104881029e-02 
3.6036868936687977e-02 0.0000000000000000e+00 3.6449060703853404e+00 
7.2854101010697503e-01 0.0000000000000000e+00 9.6506692516135473e-01 
3.6036868570121394e-02 0.0000000000000000e+00 3.6449060703856233e+00 
7.2854101010721095e-01 0.0000000000000000e+00 9.6506692522995430e-01 
3.4118506326190418e-01 0.0000000000000000e+00 1.7864978041352328e-02 
1.0130521704487769e+00 0.0000000000000000e+00 -3.2510263008506277e-02 
3.4118506362632395e-01 0.0000000000000000e+00 1.7864977972829633e-02 
1.0130521713648339e+00 0.0000000000000000e+00 -3.2510262972777343e-02 
9.9886292988103542e-01 0.0000000000000000e+00 -1.0219842261498644e-02 
9.9886293006518956e-01 0.0000000000000000e+00 -1.0219842295928724e-02 
8.8131915978282116e-01 0.0000000000000000e+00 -4.2177510079448328e-03 
8.8131916051586767e-01 0.0000000000000000e+00 -4.2177511101692752e-03 
8.8050404650709557e-01 0.0000000000000000e+00 -1.9301503721867257e-03 
8.8050404650869118e-01 0.0000000000000000e+00 -1.9301503047415348e-03 
8.7248614909027622e-01 0.0000000000000000e+00 -2.3248789318095094e-04 
8.7248614872401520e-01 0.0000000000000000e+00 -2.3248785975796011e-04 
9.9090469033843998e-01 0.0000000000000000e+00 3.0555665188086549e-04 
9.9090469052073460e-01 0.0000000000000000e+00 3.0555665046004283e-04 
8.5466722817376262e-01 0.0000000000000000e+00 3.4030883402918176e-04 
8.5466722817327978e-01 0.0000000000000000e+00 3.4030900543484378e-04 
8.5253446852493664e-01 0.0000000000000000e+00 6.1072057614841439e-04 
8.5253446834139945e-01 0.0000000000000000e+00 6.1072061083794883e-04 
8.3721127708727716e-01 0.0000000000000000e+00 8.2050903244245419e-04 
8.3721127690474273e-01 0.0000000000000000e+00 8.2050903144293514e-04 
9.3594150084420624e-01 0.0000000000000000e+00 1.3664908804012228e-03 
9.3594150066113047e-01 0.0000000000000000e+00 1.3664907772567099e-03 
7.9589598942963802e-01 0.0000000000000000e+00 1.5653178176601380e-03 
7.9589598942956075e-01 0.0000000000000000e+00 1.5653177149650486e-03 
7.8513885431159103e-01 0.0000000000000000e+00 1.8071530007358913e-03 
7.8513885412800422e-01 0.0000000000000000e+00 1.8071530346142751e-03 
7.5467623727874222e-01 0.0000000000000000e+00 2.1150828373255087e-03 
7.5467623727876121e-01 0.0000000000000000e+00 2.1150828376850206e-03 
8.0608265116702393e-01 0.0000000000000000e+00 2.5581145412521601e-03 
8.0608265080106489e-01 0.0000000000000000e+00 2.5581145756054316e-03 
6.5089818023265777e-01 0.0000000000000000e+00 2.5988943036440670e-03 
6.5089818041515135e-01 0.0000000000000000e+00 2.5988943037946262e-03 
6.0672904704404662e-01 0.0000000000000000e+00 2.0505574919478533e-03 
6.0672904704412145e-01 0.0000000000000000e+00 2.0505574576689901e-03 
5.1989141668805017e-01 0.0000000000000000e+00 3.9850648980336431e-03 
5.1989141668815209e-01 0.0000000000000000e+00 3.9850648979810558e-03 
4.0362036386338263e-01 0.0000000000000000e+00 -1.4770842540585196e-02 
4.0362036386337480e-01 0.0000000000000000e+00 -1.4770842506592210e-02 
1.9617748536083675e-02 0.0000000000000000e+00 4.9368654785382070e-02 
1.9617748536023945e-02 0.0000000000000000e+00 4.9368654785426250e-02 
-9.1386266399183194e-02 0.0000000000000000e+00 1.2591225133242574e+00 
-9.1386266582229758e-02 0.0000000000000000e+00 1.2591225133242547e+00 

VECTORS Displacements0 double
6.9356603532943773e-310 0.0000000000000000e+00 0.0000000000000000e+00 
6.0114813408060461e-04 0.0000000000000000e+00 -4.4896172366433110e-04 
0.0000000000000000e+00 0.0000000000000000e+00 0.0000000000000000e+00 
6.0114813409715138e-04 0.0000000000000000e+00 -4.4896172378798528e-04 
1.4278548345537506e-03 0.0000000000000000e+00 -6.2295689718821741e-04 
1.4278548349324093e-03 0.0000000000000000e+00 -6.2295689738921689e-04 
2.1958380159459358e-03 0.0000000000000000e+00 -4.9661699305287156e-04 
2.1958380164642942e-03 0.0000000000000000e+00 -4.9661699302442578e-04 
2.5807983841950864e-03 0.0000000000000000e+00 -2.4811009664429712e-04 
2.5807983847130848e-03 0.0000000000000000e+00 -2.4811009640020342e-04 
2.6368484461857691e-03 0.0000000000000000e+00 -5.6608621437540123e-05 
2.6368484463333815e-03 0.0000000000000000e+00 -5.6608621264487796e-05 
2.5766470954034400e-03 0.0000000000000000e+00 2.5332668012854316e-05 
2.5766470954664659e-03 0.0000000000000000e+00 2.5332668053432283e-05 
2.5144780023583176e-03 0.0000000000000000e+00 4.5305957374789648e-05 
2.5144780024731620e-03 0.0000000000000000e+00 4.5305957367736873e-05 
2.4734664970137801e-03 0.0000000000000000e+00 5.4191542901332549e-05 
2.4734664972309961e-03 0.0000000000000000e+00 5.4191542887156857e-05 
2.4217462867919533e-03 0.0000000000000000e+00 6.1585598725769945e-05 
2.4217462868029601e-03 0.0000000000000000e+00 6.1585598690068130e-05 
2.3780987154634939e-03 0.0000000000000000e+00 6.3260978411649687e-05 
2.3780987156670642e-03 0.0000000000000000e+00 6.3260978346733529e-05 
2.3408659013947177e-03 0.0000000000000000e+00 6.9357875998004787e-05 
2.3408659014833998e-03 0.0000000000000000e+00 6.9357875946159472e-05 
2.3035029148341696e-03 0.0000000000000000e+00 8.7860110828674799e-05 
2.3035029152097724e-03 0.0000000000000000e+00 8.7860110843105191e-05 
2.2432099894768307e-03 0.0000000000000000e+00 1.0869052666525109e-04 
2.2432099896419456e-03 0.0000000000000000e+00 1.0869052675459059e-04 
2.1889241180266697e-03 0.0000000000000000e+00 1.2520468580577677e-04 
2.1889241182684680e-03 0.0000000000000000e+00 1.2520468592489015e-04 
2.1429502768951078e-03 0.0000000000000000e+00 1.5032621258162840e-04 
2.1429502769521949e-03 0.0000000000000000e+00 1.5032621269749012e-04 
2.0985825319652773e-03 0.0000000000000000e+00 1.9628844527330827e-04 
2.0985825318656066e-03 0.0000000000000000e+00 1.9628844535517529e-04 
2.0281008335589937e-03 0.0000000000000000e+00 2.5625168338900726e-04 
2.0281008334423569e-03 0.0000000000000000e+00 2.5625168344062152e-04 
1.9449755967803537e-03 0.0000000000000000e+00 3.1520052625141058e-04 
1.9449755966629287e-03 0.0000000000000000e+00 3.1520052626897189e-04 
1.8588579792087742e-03 0.0000000000000000e+00 3.6341763506672500e-04 
1.8588579790581575e-03 0.0000000000000000e+00 3.6341763505409600e-04 
1.7736410689654797e-03 0.0000000000000000e+00 3.2263489447854242e-04 
1.7690612443587417e-03 0.0000000000000000e+00 3.8794775568371290e-04 
1.7736410689124808e-03 0.0000000000000000e+00 3.2263489446441760e-04 
1.7690612442409809e-03 0.0000000000000000e+00 3.8794775569144760e-04 
0.0000000000000000e+00 0.0000000000000000e+00 0.0000000000000000e+00 
6.3501788774744314e-04 0.0000000000000000e+00 4.4697332884585428e-04 
0.0000000000000000e+00 0.0000000000000000e+00 0.0000000000000000e+00 
6.3501788760244779e-04 0.0000000000000000e+00 4.4697332907045012e-04 
1.4609713550612553e-03 0.0000000000000000e+00 6.1448626706024287e-04 
1.4609713553561706e-03 0.0000000000000000e+00 6.1448626742215183e-04 
2.2228477447981255e-03 0.0000000000000000e+00 4.8353526016450376e-04 
2.2228477455450008e-03 0.0000000000000000e+00 4.8353526025237911e-04 
2.6054476011898495e-03 0.0000000000000000e+00 2.3757998178094365e-04 
2.6054476017649355e-03 0.0000000000000000e+00 2.3757998160325126e-04 
2.6589667056874573e-03 0.0000000000000000e+00 5.2884391304443658e-05 
2.6589667057195692e-03 0.0000000000000000e+00 5.2884391163472724e-05 
2.6028562856361456e-03 0.0000000000000000e+00 -2.2080594127787185e-05 
2.6028562857533621e-03 0.0000000000000000e+00 -2.2080594164789623e-05 
2.5358960500821270e-03 0.0000000000000000e+00 -3.5012443925465808e-05 
2.5358960502403658e-03 0.0000000000000000e+00 -3.5012443951443007e-05 
2.4954664676482934e-03 0.0000000000000000e+00 -3.5587371815081785e-05 
2.4954664677098587e-03 0.0000000000000000e+00 -3.5587371873517917e-05 
2.4435893347463907e-03 0.0000000000000000e+00 -3.3584553125884974e-05 
2.4435893347783556e-03 0.0000000000000000e+00 -3.3584553182466301e-05 
2.4046279249626966e-03 0.0000000000000000e+00 -2.4469882848890980e-05 
2.4046279250939341e-03 0.0000000000000000e+00 -2.4469882849604324e-05 
2.3644407692582155e-03 0.0000000000000000e+00 -1.6078050919914143e-05 
2.3644407693638853e-03 0.0000000000000000e+00 -1.6078050862454349e-05 
2.3297744596601079e-03 0.0000000000000000e+00 -1.3652322235391506e-05 
2.3297744598451586e-03 0.0000000000000000e+00 -1.3652322169504884e-05 
2.2723811361879251e-03 0.0000000000000000e+00 -5.6092246098838037e-06 
2.2723811364310309e-03 0.0000000000000000e+00 -5.6092245985231802e-06 
2.2245076107251446e-03 0.0000000000000000e+00 1.6928363096051084e-05 
2.2245076108430338e-03 0.0000000000000000e+00 1.6928363050347314e-05 
2.1795850815692422e-03 0.0000000000000000e+00 4.5142194943323320e-05 
2.1795850816379793e-03 0.0000000000000000e+00 4.5142194870385171e-05 
2.1422236734864697e-03 0.0000000000000000e+00 7.0433496516893214e-05 
2.1422236734488834e-03 0.0000000000000000e+00 7.0433496432722019e-05 
2.0785888057128087e-03 0.0000000000000000e+00 9.8721390963054309e-05 
2.0785888055770583e-03 0.0000000000000000e+00 9.8721390900983246e-05 
1.9971844812286641e-03 0.0000000000000000e+00 1.3632065735994374e-04 
1.9971844810371259e-03 0.0000000000000000e+00 1.3632065732892769e-04 
1.8984726342485055e-03 0.0000000000000000e+00 1.7767838674961735e-04 
1.8984726340865678e-03 0.0000000000000000e+00 1.7767838672256076e-04 
1.7916699592544106e-03 0.0000000000000000e+00 2.0975585286023388e-04 
1.7916699591581659e-03 0.0000000000000000e+00 2.0975585280025305e-04 

