# vtk DataFile Version 2.0

ASCII

DATASET UNSTRUCTURED_GRID

POINTS 86 double 

5.0000000000000003e-02  0.0000000000000000e+00  0.0000000000000000e+00
5.0000000000000003e-02  0.0000000000000000e+00  5.0000000000000003e-02
5.0000000000000003e-02  2.9999999999999999e-01  0.0000000000000000e+00
5.0000000000000003e-02  2.9999999999999999e-01  5.0000000000000003e-02
5.0000000000000003e-02  0.0000000000000000e+00  1.0000000000000001e-01
5.0000000000000003e-02  2.9999999999999999e-01  1.0000000000000001e-01
5.0000000000000003e-02  0.0000000000000000e+00  1.4999999999999999e-01
5.0000000000000003e-02  2.9999999999999999e-01  1.4999999999999999e-01
5.0000000000000003e-02  0.0000000000000000e+00  2.0000000000000001e-01
5.0000000000000003e-02  2.9999999999999999e-01  2.0000000000000001e-01
5.0000000000000003e-02  0.0000000000000000e+00  2.5000000000000000e-01
5.0000000000000003e-02  2.9999999999999999e-01  2.5000000000000000e-01
5.0000000000000003e-02  0.0000000000000000e+00  2.9999999999999999e-01
5.0000000000000003e-02  2.9999999999999999e-01  2.9999999999999999e-01
5.0000000000000003e-02  0.0000000000000000e+00  3.4999999999999998e-01
5.0000000000000003e-02  2.9999999999999999e-01  3.4999999999999998e-01
5.0000000000000003e-02  0.0000000000000000e+00  4.0000000000000002e-01
5.0000000000000003e-02  2.9999999999999999e-01  4.0000000000000002e-01
5.0000000000000003e-02  0.0000000000000000e+00  4.5000000000000001e-01
5.0000000000000003e-02  2.9999999999999999e-01  4.5000000000000001e-01
5.0000000000000003e-02  0.0000000000000000e+00  5.0000000000000000e-01
5.0000000000000003e-02  2.9999999999999999e-01  5.0000000000000000e-01
5.0000000000000003e-02  0.0000000000000000e+00  5.5000000000000004e-01
5.0000000000000003e-02  2.9999999999999999e-01  5.5000000000000004e-01
5.0000000000000003e-02  0.0000000000000000e+00  5.9999999999999998e-01
5.0000000000000003e-02  2.9999999999999999e-01  5.9999999999999998e-01
5.0000000000000003e-02  0.0000000000000000e+00  6.5000000000000002e-01
5.0000000000000003e-02  2.9999999999999999e-01  6.5000000000000002e-01
5.0000000000000003e-02  0.0000000000000000e+00  6.9999999999999996e-01
5.0000000000000003e-02  2.9999999999999999e-01  6.9999999999999996e-01
5.0000000000000003e-02  0.0000000000000000e+00  7.5000000000000000e-01
5.0000000000000003e-02  2.9999999999999999e-01  7.5000000000000000e-01
5.0000000000000003e-02  0.0000000000000000e+00  8.0000000000000004e-01
5.0000000000000003e-02  2.9999999999999999e-01  8.0000000000000004e-01
5.0000000000000003e-02  0.0000000000000000e+00  8.4999999999999998e-01
5.0000000000000003e-02  2.9999999999999999e-01  8.4999999999999998e-01
5.0000000000000003e-02  0.0000000000000000e+00  9.0000000000000002e-01
5.0000000000000003e-02  2.9999999999999999e-01  9.0000000000000002e-01
5.0000000000000003e-02  0.0000000000000000e+00  9.4999999999999996e-01
5.0000000000000003e-02  2.9999999999999999e-01  9.4999999999999996e-01
0.0000000000000000e+00  0.0000000000000000e+00  1.0000000000000000e+00
5.0000000000000003e-02  0.0000000000000000e+00  1.0000000000000000e+00
0.0000000000000000e+00  2.9999999999999999e-01  1.0000000000000000e+00
5.0000000000000003e-02  2.9999999999999999e-01  1.0000000000000000e+00
-5.0000000000000003e-02  0.0000000000000000e+00  0.0000000000000000e+00
-5.0000000000000003e-02  0.0000000000000000e+00  5.0000000000000003e-02
-5.0000000000000003e-02  2.9999999999999999e-01  0.0000000000000000e+00
-5.0000000000000003e-02  2.9999999999999999e-01  5.0000000000000003e-02
-5.0000000000000003e-02  0.0000000000000000e+00  1.0000000000000001e-01
-5.0000000000000003e-02  2.9999999999999999e-01  1.0000000000000001e-01
-5.0000000000000003e-02  0.0000000000000000e+00  1.4999999999999999e-01
-5.0000000000000003e-02  2.9999999999999999e-01  1.4999999999999999e-01
-5.0000000000000003e-02  0.0000000000000000e+00  2.0000000000000001e-01
-5.0000000000000003e-02  2.9999999999999999e-01  2.0000000000000001e-01
-5.0000000000000003e-02  0.0000000000000000e+00  2.5000000000000000e-01
-5.0000000000000003e-02  2.9999999999999999e-01  2.5000000000000000e-01
-5.0000000000000003e-02  0.0000000000000000e+00  2.9999999999999999e-01
-5.0000000000000003e-02  2.9999999999999999e-01  2.9999999999999999e-01
-5.0000000000000003e-02  0.0000000000000000e+00  3.4999999999999998e-01
-5.0000000000000003e-02  2.9999999999999999e-01  3.4999999999999998e-01
-5.0000000000000003e-02  0.0000000000000000e+00  4.0000000000000002e-01
-5.0000000000000003e-02  2.9999999999999999e-01  4.0000000000000002e-01
-5.0000000000000003e-02  0.0000000000000000e+00  4.5000000000000001e-01
-5.0000000000000003e-02  2.9999999999999999e-01  4.5000000000000001e-01
-5.0000000000000003e-02  0.0000000000000000e+00  5.0000000000000000e-01
-5.0000000000000003e-02  2.9999999999999999e-01  5.0000000000000000e-01
-5.0000000000000003e-02  0.0000000000000000e+00  5.5000000000000004e-01
-5.0000000000000003e-02  2.9999999999999999e-01  5.5000000000000004e-01
-5.0000000000000003e-02  0.0000000000000000e+00  5.9999999999999998e-01
-5.0000000000000003e-02  2.9999999999999999e-01  5.9999999999999998e-01
-5.0000000000000003e-02  0.0000000000000000e+00  6.5000000000000002e-01
-5.0000000000000003e-02  2.9999999999999999e-01  6.5000000000000002e-01
-5.0000000000000003e-02  0.0000000000000000e+00  6.9999999999999996e-01
-5.0000000000000003e-02  2.9999999999999999e-01  6.9999999999999996e-01
-5.0000000000000003e-02  0.0000000000000000e+00  7.5000000000000000e-01
-5.0000000000000003e-02  2.9999999999999999e-01  7.5000000000000000e-01
-5.0000000000000003e-02  0.0000000000000000e+00  8.0000000000000004e-01
-5.0000000000000003e-02  2.9999999999999999e-01  8.0000000000000004e-01
-5.0000000000000003e-02  0.0000000000000000e+00  8.4999999999999998e-01
-5.0000000000000003e-02  2.9999999999999999e-01  8.4999999999999998e-01
-5.0000000000000003e-02  0.0000000000000000e+00  9.0000000000000002e-01
-5.0000000000000003e-02  2.9999999999999999e-01  9.0000000000000002e-01
-5.0000000000000003e-02  0.0000000000000000e+00  9.4999999999999996e-01
-5.0000000000000003e-02  2.9999999999999999e-01  9.4999999999999996e-01
-5.0000000000000003e-02  0.0000000000000000e+00  1.0000000000000000e+00
-5.0000000000000003e-02  2.9999999999999999e-01  1.0000000000000000e+00

CELLS 0 0


CELL_TYPES 0


POINT_DATA 86

VECTORS VertexNormals double

0.0000000000000000e+00 0.0000000000000000e+00 0.0000000000000000e+00 
0.0000000000000000e+00 0.0000000000000000e+00 0.0000000000000000e+00 
0.0000000000000000e+00 0.0000000000000000e+00 0.0000000000000000e+00 
0.0000000000000000e+00 0.0000000000000000e+00 0.0000000000000000e+00 
0.0000000000000000e+00 0.0000000000000000e+00 0.0000000000000000e+00 
0.0000000000000000e+00 0.0000000000000000e+00 0.0000000000000000e+00 
0.0000000000000000e+00 0.0000000000000000e+00 0.0000000000000000e+00 
0.0000000000000000e+00 0.0000000000000000e+00 0.0000000000000000e+00 
0.0000000000000000e+00 0.0000000000000000e+00 0.0000000000000000e+00 
0.0000000000000000e+00 0.0000000000000000e+00 0.0000000000000000e+00 
0.0000000000000000e+00 0.0000000000000000e+00 0.0000000000000000e+00 
0.0000000000000000e+00 0.0000000000000000e+00 0.0000000000000000e+00 
0.0000000000000000e+00 0.0000000000000000e+00 0.0000000000000000e+00 
0.0000000000000000e+00 0.0000000000000000e+00 0.0000000000000000e+00 
0.0000000000000000e+00 0.0000000000000000e+00 0.0000000000000000e+00 
0.0000000000000000e+00 0.0000000000000000e+00 0.0000000000000000e+00 
0.0000000000000000e+00 0.0000000000000000e+00 0.0000000000000000e+00 
0.0000000000000000e+00 0.0000000000000000e+00 0.0000000000000000e+00 
0.0000000000000000e+00 0.0000000000000000e+00 0.0000000000000000e+00 
0.0000000000000000e+00 0.0000000000000000e+00 0.0000000000000000e+00 
0.0000000000000000e+00 0.0000000000000000e+00 0.0000000000000000e+00 
0.0000000000000000e+00 0.0000000000000000e+00 0.0000000000000000e+00 
0.0000000000000000e+00 0.0000000000000000e+00 0.0000000000000000e+00 
0.0000000000000000e+00 0.0000000000000000e+00 0.0000000000000000e+00 
0.0000000000000000e+00 0.0000000000000000e+00 0.0000000000000000e+00 
0.0000000000000000e+00 0.0000000000000000e+00 0.0000000000000000e+00 
0.0000000000000000e+00 0.0000000000000000e+00 0.0000000000000000e+00 
0.0000000000000000e+00 0.0000000000000000e+00 0.0000000000000000e+00 
0.0000000000000000e+00 0.0000000000000000e+00 0.0000000000000000e+00 
0.0000000000000000e+00 0.0000000000000000e+00 0.0000000000000000e+00 
0.0000000000000000e+00 0.0000000000000000e+00 0.0000000000000000e+00 
0.0000000000000000e+00 0.0000000000000000e+00 0.0000000000000000e+00 
0.0000000000000000e+00 0.0000000000000000e+00 0.0000000000000000e+00 
0.0000000000000000e+00 0.0000000000000000e+00 0.0000000000000000e+00 
0.0000000000000000e+00 0.0000000000000000e+00 0.0000000000000000e+00 
0.0000000000000000e+00 0.0000000000000000e+00 0.0000000000000000e+00 
0.0000000000000000e+00 0.0000000000000000e+00 0.0000000000000000e+00 
0.0000000000000000e+00 0.0000000000000000e+00 0.0000000000000000e+00 
0.0000000000000000e+00 0.0000000000000000e+00 0.0000000000000000e+00 
0.0000000000000000e+00 0.0000000000000000e+00 0.0000000000000000e+00 
0.0000000000000000e+00 0.0000000000000000e+00 0.0000000000000000e+00 
0.0000000000000000e+00 0.0000000000000000e+00 0.0000000000000000e+00 
0.0000000000000000e+00 0.0000000000000000e+00 0.0000000000000000e+00 
0.0000000000000000e+00 0.0000000000000000e+00 0.0000000000000000e+00 
0.0000000000000000e+00 0.0000000000000000e+00 0.0000000000000000e+00 
0.0000000000000000e+00 0.0000000000000000e+00 0.0000000000000000e+00 
0.0000000000000000e+00 0.0000000000000000e+00 0.0000000000000000e+00 
0.0000000000000000e+00 0.0000000000000000e+00 0.0000000000000000e+00 
0.0000000000000000e+00 0.0000000000000000e+00 0.0000000000000000e+00 
0.0000000000000000e+00 0.0000000000000000e+00 0.0000000000000000e+00 
0.0000000000000000e+00 0.0000000000000000e+00 0.0000000000000000e+00 
0.0000000000000000e+00 0.0000000000000000e+00 0.0000000000000000e+00 
0.0000000000000000e+00 0.0000000000000000e+00 0.0000000000000000e+00 
0.0000000000000000e+00 0.0000000000000000e+00 0.0000000000000000e+00 
0.0000000000000000e+00 0.0000000000000000e+00 0.0000000000000000e+00 
0.0000000000000000e+00 0.0000000000000000e+00 0.0000000000000000e+00 
0.0000000000000000e+00 0.0000000000000000e+00 0.0000000000000000e+00 
0.0000000000000000e+00 0.0000000000000000e+00 0.0000000000000000e+00 
0.0000000000000000e+00 0.0000000000000000e+00 0.0000000000000000e+00 
0.0000000000000000e+00 0.0000000000000000e+00 0.0000000000000000e+00 
0.0000000000000000e+00 0.0000000000000000e+00 0.0000000000000000e+00 
0.0000000000000000e+00 0.0000000000000000e+00 0.0000000000000000e+00 
0.0000000000000000e+00 0.0000000000000000e+00 0.0000000000000000e+00 
0.0000000000000000e+00 0.0000000000000000e+00 0.0000000000000000e+00 
0.0000000000000000e+00 0.0000000000000000e+00 0.0000000000000000e+00 
0.0000000000000000e+00 0.0000000000000000e+00 0.0000000000000000e+00 
0.0000000000000000e+00 0.0000000000000000e+00 0.0000000000000000e+00 
0.0000000000000000e+00 0.0000000000000000e+00 0.0000000000000000e+00 
0.0000000000000000e+00 0.0000000000000000e+00 0.0000000000000000e+00 
0.0000000000000000e+00 0.0000000000000000e+00 0.0000000000000000e+00 
0.0000000000000000e+00 0.0000000000000000e+00 0.0000000000000000e+00 
0.0000000000000000e+00 0.0000000000000000e+00 0.0000000000000000e+00 
0.0000000000000000e+00 0.0000000000000000e+00 0.0000000000000000e+00 
0.0000000000000000e+00 0.0000000000000000e+00 0.0000000000000000e+00 
0.0000000000000000e+00 0.0000000000000000e+00 0.0000000000000000e+00 
0.0000000000000000e+00 0.0000000000000000e+00 0.0000000000000000e+00 
0.0000000000000000e+00 0.0000000000000000e+00 0.0000000000000000e+00 
0.0000000000000000e+00 0.0000000000000000e+00 0.0000000000000000e+00 
0.0000000000000000e+00 0.0000000000000000e+00 0.0000000000000000e+00 
0.0000000000000000e+00 0.0000000000000000e+00 0.0000000000000000e+00 
0.0000000000000000e+00 0.0000000000000000e+00 0.0000000000000000e+00 
0.0000000000000000e+00 0.0000000000000000e+00 0.0000000000000000e+00 
0.0000000000000000e+00 0.0000000000000000e+00 0.0000000000000000e+00 
0.0000000000000000e+00 0.0000000000000000e+00 0.0000000000000000e+00 
0.0000000000000000e+00 0.0000000000000000e+00 0.0000000000000000e+00 
0.0000000000000000e+00 0.0000000000000000e+00 0.0000000000000000e+00 

VECTORS Forces0 double
8.8619919791471297e-02 0.0000000000000000e+00 7.6131266839805532e-04 
3.6210773574324107e-01 0.0000000000000000e+00 -1.8409873607894370e-02 
8.8619920027725591e-02 0.0000000000000000e+00 7.6131268571616732e-04 
3.6210773621745124e-01 0.0000000000000000e+00 -1.8409873592025894e-02 
3.2526398770073900e-01 0.0000000000000000e+00 -2.6740648609407523e-02 
3.2526398841181631e-01 0.0000000000000000e+00 -2.6740648642133116e-02 
3.0160605866434614e-01 0.0000000000000000e+00 -3.3783726808888442e-02 
3.0160605842692662e-01 0.0000000000000000e+00 -3.3783726727301872e-02 
3.1378817388766406e-01 0.0000000000000000e+00 -3.9990435254601074e-02 
3.1378817483506466e-01 0.0000000000000000e+00 -3.9990435304717992e-02 
3.0823304528946599e-01 0.0000000000000000e+00 -4.3458736714106001e-02 
3.0823304564466592e-01 0.0000000000000000e+00 -4.3458736722551454e-02 
3.5550693628767593e-01 0.0000000000000000e+00 -5.3935210536976266e-02 
3.5550693628859165e-01 0.0000000000000000e+00 -5.3935210553871460e-02 
3.3210520068501298e-01 0.0000000000000000e+00 -5.1071990076479529e-02 
3.3210520139586175e-01 0.0000000000000000e+00 -5.1071990085973025e-02 
3.5297791431444797e-01 0.0000000000000000e+00 -5.3660795115176324e-02 
3.5297791419694247e-01 0.0000000000000000e+00 -5.3660795090377904e-02 
3.5574397951568265e-01 0.0000000000000000e+00 -5.3255297794930850e-02 
3.5574397951558584e-01 0.0000000000000000e+00 -5.3255297728289838e-02 
4.2285730555124224e-01 0.0000000000000000e+00 -6.0773794493322347e-02 
4.2285730602502292e-01 0.0000000000000000e+00 -6.0773794518472403e-02 
3.9497037906439508e-01 0.0000000000000000e+00 -5.3321418880827698e-02 
3.9497037918207251e-01 0.0000000000000000e+00 -5.3321418922275300e-02 
4.1431751686137336e-01 0.0000000000000000e+00 -5.3852228442160359e-02 
4.1431751697961910e-01 0.0000000000000000e+00 -5.3852228475980785e-02 
4.1740173941136161e-01 0.0000000000000000e+00 -5.2332100076067999e-02 
4.1740173941121123e-01 0.0000000000000000e+00 -5.2332100050656166e-02 
4.8856414424260403e-01 0.0000000000000000e+00 -6.0363707903301062e-02 
4.8856414400602022e-01 0.0000000000000000e+00 -6.0363707870147942e-02 
4.4024806344355094e-01 0.0000000000000000e+00 -5.5072548587288266e-02 
4.4024806285133200e-01 0.0000000000000000e+00 -5.5072548570513628e-02 
4.4867029421702653e-01 0.0000000000000000e+00 -5.6106322038324288e-02 
4.4867029433505751e-01 0.0000000000000000e+00 -5.6106322062392806e-02 
4.4616630607377994e-01 0.0000000000000000e+00 -5.5236203022503094e-02 
4.4616630607446772e-01 0.0000000000000000e+00 -5.5236203013852556e-02 
5.0219505928991159e-01 0.0000000000000000e+00 -6.2970082548202619e-02 
5.0219505929015051e-01 0.0000000000000000e+00 -6.2970082521980594e-02 
4.9113087676373357e-01 0.0000000000000000e+00 -5.0939403711289792e-02 
4.9113087664467853e-01 0.0000000000000000e+00 -5.0939403702115901e-02 
1.1178244206837298e-01 0.0000000000000000e+00 8.3439264063982954e-01 
1.9448436946647749e-01 0.0000000000000000e+00 1.8001747156195289e-01 
1.1178244183149794e-01 0.0000000000000000e+00 8.3439264063944807e-01 
1.9448436934795155e-01 0.0000000000000000e+00 1.8001747152824840e-01 
3.3306188267217363e-01 0.0000000000000000e+00 -8.0220915812771413e-03 
9.9238473863409604e-01 0.0000000000000000e+00 -4.4687836752438301e-02 
3.3306188326406422e-01 0.0000000000000000e+00 -8.0220915994199306e-03 
9.9238473839785446e-01 0.0000000000000000e+00 -4.4687836777819880e-02 
9.8466313170911213e-01 0.0000000000000000e+00 -8.0573050971696467e-02 
9.8466313159027974e-01 0.0000000000000000e+00 -8.0573050971418952e-02 
8.6227573867871954e-01 0.0000000000000000e+00 -9.7034757057862811e-02 
8.6227573856028572e-01 0.0000000000000000e+00 -9.7034757049775391e-02 
8.5390080351283304e-01 0.0000000000000000e+00 -1.0911749589320241e-01 
8.5390080374966448e-01 0.0000000000000000e+00 -1.0911749591005750e-01 
8.4477408980581481e-01 0.0000000000000000e+00 -1.1970410724412849e-01 
8.4477408980554647e-01 0.0000000000000000e+00 -1.1970410725234167e-01 
9.5544160433743053e-01 0.0000000000000000e+00 -1.4630118690614954e-01 
9.5544160504741582e-01 0.0000000000000000e+00 -1.4630118687291124e-01 
8.1328872737915592e-01 0.0000000000000000e+00 -1.2650212913245376e-01 
8.1328872761599635e-01 0.0000000000000000e+00 -1.2650212911578662e-01 
8.0265872574042352e-01 0.0000000000000000e+00 -1.2361806459267967e-01 
8.0265872550361084e-01 0.0000000000000000e+00 -1.2361806461735059e-01 
7.8677652976229462e-01 0.0000000000000000e+00 -1.1945481747038758e-01 
7.8677652999870651e-01 0.0000000000000000e+00 -1.1945481749539409e-01 
8.7775828403723266e-01 0.0000000000000000e+00 -1.2789720119114753e-01 
8.7775828427425928e-01 0.0000000000000000e+00 -1.2789720119130563e-01 
7.3772920512651508e-01 0.0000000000000000e+00 -1.0100209574667371e-01 
7.3772920512659212e-01 0.0000000000000000e+00 -1.0100209574706798e-01 
7.2006836172888922e-01 0.0000000000000000e+00 -9.5046164566788369e-02 
7.2006836184715295e-01 0.0000000000000000e+00 -9.5046164591815238e-02 
6.9479944572863539e-01 0.0000000000000000e+00 -8.8353912163467122e-02 
6.9479944584703568e-01 0.0000000000000000e+00 -8.8353912188269795e-02 
7.5121194378859635e-01 0.0000000000000000e+00 -9.3940515103514768e-02 
7.5121194367030419e-01 0.0000000000000000e+00 -9.3940515095306446e-02 
6.0154800738652614e-01 0.0000000000000000e+00 -7.5958622416043370e-02 
6.0154800738653136e-01 0.0000000000000000e+00 -7.5958622407960211e-02 
5.5667830677051722e-01 0.0000000000000000e+00 -7.0218063593968108e-02 
5.5667830677052177e-01 0.0000000000000000e+00 -7.0218063593914637e-02 
4.9965908192242886e-01 0.0000000000000000e+00 -6.2313182288192895e-02 
4.9965908204068005e-01 0.0000000000000000e+00 -6.2313182296167724e-02 
4.5560959012481961e-01 0.0000000000000000e+00 -6.0127587744440131e-02 
4.5560959012486602e-01 0.0000000000000000e+00 -6.0127587744641310e-02 
2.3968502601021838e-01 0.0000000000000000e+00 -1.6267924349440147e-02 
2.3968502612855400e-01 0.0000000000000000e+00 -1.6267924349417179e-02 
1.1345272566386788e-01 0.0000000000000000e+00 3.3071984322548670e-01 
1.1345272578221835e-01 0.0000000000000000e+00 3.3071984322548603e-01 

VECTORS Displacements0 double
6.9356603523157320e-310 0.0000000000000000e+00 0.0000000000000000e+00 
1.5427983992042928e-03 0.0000000000000000e+00 -1.9290555726544697e-03 
0.0000000000000000e+00 0.0000000000000000e+00 0.0000000000000000e+00 
1.5427983991360785e-03 0.0000000000000000e+00 -1.9290555725236613e-03 
4.5822503586278466e-03 0.0000000000000000e+00 -3.6956081251495105e-03 
4.5822503583419251e-03 0.0000000000000000e+00 -3.6956081249033077e-03 
9.1929033631516222e-03 0.0000000000000000e+00 -5.1880895242218811e-03 
9.1929033625031201e-03 0.0000000000000000e+00 -5.1880895239587157e-03 
1.4962074575670340e-02 0.0000000000000000e+00 -6.4933422785287964e-03 
1.4962074574919253e-02 0.0000000000000000e+00 -6.4933422783894218e-03 
2.1654490069470348e-02 0.0000000000000000e+00 -7.6448334709689142e-03 
2.1654490068808804e-02 0.0000000000000000e+00 -7.6448334710245407e-03 
2.9046535867834518e-02 0.0000000000000000e+00 -8.6386446966040774e-03 
2.9046535867320988e-02 0.0000000000000000e+00 -8.6386446968148775e-03 
3.6876715253061097e-02 0.0000000000000000e+00 -9.4459534405023516e-03 
3.6876715252928745e-02 0.0000000000000000e+00 -9.4459534407528977e-03 
4.4868504028514694e-02 0.0000000000000000e+00 -1.0064964942302117e-02 
4.4868504028681186e-02 0.0000000000000000e+00 -1.0064964942399592e-02 
5.2822782862785134e-02 0.0000000000000000e+00 -1.0533060165957297e-02 
5.2822782862845218e-02 0.0000000000000000e+00 -1.0533060165823116e-02 
6.0643325360546160e-02 0.0000000000000000e+00 -1.0890225048397234e-02 
6.0643325360224820e-02 0.0000000000000000e+00 -1.0890225048159043e-02 
6.8258681630805118e-02 0.0000000000000000e+00 -1.1152409700978446e-02 
6.8258681630093659e-02 0.0000000000000000e+00 -1.1152409700840749e-02 
7.5592703343893633e-02 0.0000000000000000e+00 -1.1340098805400885e-02 
7.5592703343124956e-02 0.0000000000000000e+00 -1.1340098805498289e-02 
8.2605864222994624e-02 0.0000000000000000e+00 -1.1511553028944067e-02 
8.2605864222511108e-02 0.0000000000000000e+00 -1.1511553029227477e-02 
8.9359331918599724e-02 0.0000000000000000e+00 -1.1746542061882527e-02 
8.9359331918411986e-02 0.0000000000000000e+00 -1.1746542062193839e-02 
9.6000975305735259e-02 0.0000000000000000e+00 -1.2095951525902891e-02 
9.6000975305776962e-02 0.0000000000000000e+00 -1.2095951526141542e-02 
1.0269189012118299e-01 0.0000000000000000e+00 -1.2551995677954316e-02 
1.0269189012142253e-01 0.0000000000000000e+00 -1.2551995678062549e-02 
1.0950730433562191e-01 0.0000000000000000e+00 -1.3060636180936426e-02 
1.0950730433577960e-01 0.0000000000000000e+00 -1.3060636180857964e-02 
1.1642598079605564e-01 0.0000000000000000e+00 -1.3568859076337437e-02 
1.1642598079594953e-01 0.0000000000000000e+00 -1.3568859076067256e-02 
1.2338901687223579e-01 0.0000000000000000e+00 -1.4057769039926156e-02 
1.2338901687175444e-01 0.0000000000000000e+00 -1.4057769039532366e-02 
1.3084242555424869e-01 0.0000000000000000e+00 -7.5754936024272001e-03 
1.3035459703601671e-01 0.0000000000000000e+00 -1.4540323453608339e-02 
1.3084242555328129e-01 0.0000000000000000e+00 -7.5754936023426627e-03 
1.3035459703512076e-01 0.0000000000000000e+00 -1.4540323453151668e-02 
0.0000000000000000e+00 0.0000000000000000e+00 0.0000000000000000e+00 
1.7371778175066081e-03 0.0000000000000000e+00 1.9987639334425409e-03 
0.0000000000000000e+00 0.0000000000000000e+00 0.0000000000000000e+00 
1.7371778174332618e-03 0.0000000000000000e+00 1.9987639333220392e-03 
4.9805296467158077e-03 0.0000000000000000e+00 3.7078082956675151e-03 
4.9805296463487124e-03 0.0000000000000000e+00 3.7078082954943811e-03 
9.8219998600872684e-03 0.0000000000000000e+00 4.9431119475474641e-03 
9.8219998594343549e-03 0.0000000000000000e+00 4.9431119474615155e-03 
1.5828417644286757e-02 0.0000000000000000e+00 5.7621644721138204e-03 
1.5828417643504070e-02 0.0000000000000000e+00 5.7621644721963074e-03 
2.2727862021541787e-02 0.0000000000000000e+00 6.2038063048214928e-03 
2.2727862020841771e-02 0.0000000000000000e+00 6.2038063050400393e-03 
3.0274424930405493e-02 0.0000000000000000e+00 6.2963969389861468e-03 
3.0274424930010153e-02 0.0000000000000000e+00 6.2963969392521206e-03 
3.8186420675292876e-02 0.0000000000000000e+00 6.0748740541270311e-03 
3.8186420675284230e-02 0.0000000000000000e+00 6.0748740543026813e-03 
4.6198317933144120e-02 0.0000000000000000e+00 5.6150561393332101e-03 
4.6198317933305783e-02 0.0000000000000000e+00 5.6150561392918595e-03 
5.4128994308335163e-02 0.0000000000000000e+00 5.0139818486593570e-03 
5.4128994308323491e-02 0.0000000000000000e+00 5.0139818484259240e-03 
6.1897296326533138e-02 0.0000000000000000e+00 4.3399992935192712e-03 
6.1897296326104884e-02 0.0000000000000000e+00 4.3399992932889571e-03 
6.9439341377677211e-02 0.0000000000000000e+00 3.6294158715928821e-03 
6.9439341376909172e-02 0.0000000000000000e+00 3.6294158715615560e-03 
7.6692630490836119e-02 0.0000000000000000e+00 2.9203350714597492e-03 
7.6692630490095157e-02 0.0000000000000000e+00 2.9203350716448667e-03 
8.3629925284002538e-02 0.0000000000000000e+00 2.2734727228302166e-03 
8.3629925283573242e-02 0.0000000000000000e+00 2.2734727230819267e-03 
9.0333652917691312e-02 0.0000000000000000e+00 1.7413189111486038e-03 
9.0333652917615137e-02 0.0000000000000000e+00 1.7413189113291028e-03 
9.6958234698991758e-02 0.0000000000000000e+00 1.3303131267586323e-03 
9.6958234699139709e-02 0.0000000000000000e+00 1.3303131268179991e-03 
1.0365628463523993e-01 0.0000000000000000e+00 9.9051621917914260e-04 
1.0365628463545028e-01 0.0000000000000000e+00 9.9051621907228428e-04 
1.1048562657516993e-01 0.0000000000000000e+00 6.5113044002111100e-04 
1.1048562657528510e-01 0.0000000000000000e+00 6.5113043973728379e-04 
1.1741340325530600e-01 0.0000000000000000e+00 2.6748829028155907e-04 
1.1741340325515406e-01 0.0000000000000000e+00 2.6748828988399915e-04 
1.2437442428525215e-01 0.0000000000000000e+00 -1.6325944589940189e-04 
1.2437442428465416e-01 0.0000000000000000e+00 -1.6325944630800527e-04 
1.3133272113286043e-01 0.0000000000000000e+00 -6.2719853945435730e-04 
1.3133272113180927e-01 0.0000000000000000e+00 -6.2719853982420479e-04 

