# vtk DataFile Version 2.0

ASCII

DATASET UNSTRUCTURED_GRID

POINTS 86 float 

5.0000000000000003e-02  0.0000000000000000e+00  0.0000000000000000e+00
5.0000000000000003e-02  0.0000000000000000e+00  5.0000000000000003e-02
5.0000000000000003e-02  2.9999999999999999e-01  0.0000000000000000e+00
5.0000000000000003e-02  2.9999999999999999e-01  5.0000000000000003e-02
5.0000000000000003e-02  0.0000000000000000e+00  1.0000000000000001e-01
5.0000000000000003e-02  2.9999999999999999e-01  1.0000000000000001e-01
5.0000000000000003e-02  0.0000000000000000e+00  1.4999999999999999e-01
5.0000000000000003e-02  2.9999999999999999e-01  1.4999999999999999e-01
5.0000000000000003e-02  0.0000000000000000e+00  2.0000000000000001e-01
5.0000000000000003e-02  2.9999999999999999e-01  2.0000000000000001e-01
5.0000000000000003e-02  0.0000000000000000e+00  2.5000000000000000e-01
5.0000000000000003e-02  2.9999999999999999e-01  2.5000000000000000e-01
5.0000000000000003e-02  0.0000000000000000e+00  2.9999999999999999e-01
5.0000000000000003e-02  2.9999999999999999e-01  2.9999999999999999e-01
5.0000000000000003e-02  0.0000000000000000e+00  3.4999999999999998e-01
5.0000000000000003e-02  2.9999999999999999e-01  3.4999999999999998e-01
5.0000000000000003e-02  0.0000000000000000e+00  4.0000000000000002e-01
5.0000000000000003e-02  2.9999999999999999e-01  4.0000000000000002e-01
5.0000000000000003e-02  0.0000000000000000e+00  4.5000000000000001e-01
5.0000000000000003e-02  2.9999999999999999e-01  4.5000000000000001e-01
5.0000000000000003e-02  0.0000000000000000e+00  5.0000000000000000e-01
5.0000000000000003e-02  2.9999999999999999e-01  5.0000000000000000e-01
5.0000000000000003e-02  0.0000000000000000e+00  5.5000000000000004e-01
5.0000000000000003e-02  2.9999999999999999e-01  5.5000000000000004e-01
5.0000000000000003e-02  0.0000000000000000e+00  5.9999999999999998e-01
5.0000000000000003e-02  2.9999999999999999e-01  5.9999999999999998e-01
5.0000000000000003e-02  0.0000000000000000e+00  6.5000000000000002e-01
5.0000000000000003e-02  2.9999999999999999e-01  6.5000000000000002e-01
5.0000000000000003e-02  0.0000000000000000e+00  6.9999999999999996e-01
5.0000000000000003e-02  2.9999999999999999e-01  6.9999999999999996e-01
5.0000000000000003e-02  0.0000000000000000e+00  7.5000000000000000e-01
5.0000000000000003e-02  2.9999999999999999e-01  7.5000000000000000e-01
5.0000000000000003e-02  0.0000000000000000e+00  8.0000000000000004e-01
5.0000000000000003e-02  2.9999999999999999e-01  8.0000000000000004e-01
5.0000000000000003e-02  0.0000000000000000e+00  8.4999999999999998e-01
5.0000000000000003e-02  2.9999999999999999e-01  8.4999999999999998e-01
5.0000000000000003e-02  0.0000000000000000e+00  9.0000000000000002e-01
5.0000000000000003e-02  2.9999999999999999e-01  9.0000000000000002e-01
5.0000000000000003e-02  0.0000000000000000e+00  9.4999999999999996e-01
5.0000000000000003e-02  2.9999999999999999e-01  9.4999999999999996e-01
0.0000000000000000e+00  0.0000000000000000e+00  1.0000000000000000e+00
5.0000000000000003e-02  0.0000000000000000e+00  1.0000000000000000e+00
0.0000000000000000e+00  2.9999999999999999e-01  1.0000000000000000e+00
5.0000000000000003e-02  2.9999999999999999e-01  1.0000000000000000e+00
-5.0000000000000003e-02  0.0000000000000000e+00  0.0000000000000000e+00
-5.0000000000000003e-02  0.0000000000000000e+00  5.0000000000000003e-02
-5.0000000000000003e-02  2.9999999999999999e-01  0.0000000000000000e+00
-5.0000000000000003e-02  2.9999999999999999e-01  5.0000000000000003e-02
-5.0000000000000003e-02  0.0000000000000000e+00  1.0000000000000001e-01
-5.0000000000000003e-02  2.9999999999999999e-01  1.0000000000000001e-01
-5.0000000000000003e-02  0.0000000000000000e+00  1.4999999999999999e-01
-5.0000000000000003e-02  2.9999999999999999e-01  1.4999999999999999e-01
-5.0000000000000003e-02  0.0000000000000000e+00  2.0000000000000001e-01
-5.0000000000000003e-02  2.9999999999999999e-01  2.0000000000000001e-01
-5.0000000000000003e-02  0.0000000000000000e+00  2.5000000000000000e-01
-5.0000000000000003e-02  2.9999999999999999e-01  2.5000000000000000e-01
-5.0000000000000003e-02  0.0000000000000000e+00  2.9999999999999999e-01
-5.0000000000000003e-02  2.9999999999999999e-01  2.9999999999999999e-01
-5.0000000000000003e-02  0.0000000000000000e+00  3.4999999999999998e-01
-5.0000000000000003e-02  2.9999999999999999e-01  3.4999999999999998e-01
-5.0000000000000003e-02  0.0000000000000000e+00  4.0000000000000002e-01
-5.0000000000000003e-02  2.9999999999999999e-01  4.0000000000000002e-01
-5.0000000000000003e-02  0.0000000000000000e+00  4.5000000000000001e-01
-5.0000000000000003e-02  2.9999999999999999e-01  4.5000000000000001e-01
-5.0000000000000003e-02  0.0000000000000000e+00  5.0000000000000000e-01
-5.0000000000000003e-02  2.9999999999999999e-01  5.0000000000000000e-01
-5.0000000000000003e-02  0.0000000000000000e+00  5.5000000000000004e-01
-5.0000000000000003e-02  2.9999999999999999e-01  5.5000000000000004e-01
-5.0000000000000003e-02  0.0000000000000000e+00  5.9999999999999998e-01
-5.0000000000000003e-02  2.9999999999999999e-01  5.9999999999999998e-01
-5.0000000000000003e-02  0.0000000000000000e+00  6.5000000000000002e-01
-5.0000000000000003e-02  2.9999999999999999e-01  6.5000000000000002e-01
-5.0000000000000003e-02  0.0000000000000000e+00  6.9999999999999996e-01
-5.0000000000000003e-02  2.9999999999999999e-01  6.9999999999999996e-01
-5.0000000000000003e-02  0.0000000000000000e+00  7.5000000000000000e-01
-5.0000000000000003e-02  2.9999999999999999e-01  7.5000000000000000e-01
-5.0000000000000003e-02  0.0000000000000000e+00  8.0000000000000004e-01
-5.0000000000000003e-02  2.9999999999999999e-01  8.0000000000000004e-01
-5.0000000000000003e-02  0.0000000000000000e+00  8.4999999999999998e-01
-5.0000000000000003e-02  2.9999999999999999e-01  8.4999999999999998e-01
-5.0000000000000003e-02  0.0000000000000000e+00  9.0000000000000002e-01
-5.0000000000000003e-02  2.9999999999999999e-01  9.0000000000000002e-01
-5.0000000000000003e-02  0.0000000000000000e+00  9.4999999999999996e-01
-5.0000000000000003e-02  2.9999999999999999e-01  9.4999999999999996e-01
-5.0000000000000003e-02  0.0000000000000000e+00  1.0000000000000000e+00
-5.0000000000000003e-02  2.9999999999999999e-01  1.0000000000000000e+00

CELLS 0 0


CELL_TYPES 0


POINT_DATA 86

VECTORS VertexNormals float

0.0000000000000000e+00 0.0000000000000000e+00 0.0000000000000000e+00 
0.0000000000000000e+00 0.0000000000000000e+00 0.0000000000000000e+00 
0.0000000000000000e+00 0.0000000000000000e+00 0.0000000000000000e+00 
0.0000000000000000e+00 0.0000000000000000e+00 0.0000000000000000e+00 
0.0000000000000000e+00 0.0000000000000000e+00 0.0000000000000000e+00 
0.0000000000000000e+00 0.0000000000000000e+00 0.0000000000000000e+00 
0.0000000000000000e+00 0.0000000000000000e+00 0.0000000000000000e+00 
0.0000000000000000e+00 0.0000000000000000e+00 0.0000000000000000e+00 
0.0000000000000000e+00 0.0000000000000000e+00 0.0000000000000000e+00 
0.0000000000000000e+00 0.0000000000000000e+00 0.0000000000000000e+00 
0.0000000000000000e+00 0.0000000000000000e+00 0.0000000000000000e+00 
0.0000000000000000e+00 0.0000000000000000e+00 0.0000000000000000e+00 
0.0000000000000000e+00 0.0000000000000000e+00 0.0000000000000000e+00 
0.0000000000000000e+00 0.0000000000000000e+00 0.0000000000000000e+00 
0.0000000000000000e+00 0.0000000000000000e+00 0.0000000000000000e+00 
0.0000000000000000e+00 0.0000000000000000e+00 0.0000000000000000e+00 
0.0000000000000000e+00 0.0000000000000000e+00 0.0000000000000000e+00 
0.0000000000000000e+00 0.0000000000000000e+00 0.0000000000000000e+00 
0.0000000000000000e+00 0.0000000000000000e+00 0.0000000000000000e+00 
0.0000000000000000e+00 0.0000000000000000e+00 0.0000000000000000e+00 
0.0000000000000000e+00 0.0000000000000000e+00 0.0000000000000000e+00 
0.0000000000000000e+00 0.0000000000000000e+00 0.0000000000000000e+00 
0.0000000000000000e+00 0.0000000000000000e+00 0.0000000000000000e+00 
0.0000000000000000e+00 0.0000000000000000e+00 0.0000000000000000e+00 
0.0000000000000000e+00 0.0000000000000000e+00 0.0000000000000000e+00 
0.0000000000000000e+00 0.0000000000000000e+00 0.0000000000000000e+00 
0.0000000000000000e+00 0.0000000000000000e+00 0.0000000000000000e+00 
0.0000000000000000e+00 0.0000000000000000e+00 0.0000000000000000e+00 
0.0000000000000000e+00 0.0000000000000000e+00 0.0000000000000000e+00 
0.0000000000000000e+00 0.0000000000000000e+00 0.0000000000000000e+00 
0.0000000000000000e+00 0.0000000000000000e+00 0.0000000000000000e+00 
0.0000000000000000e+00 0.0000000000000000e+00 0.0000000000000000e+00 
0.0000000000000000e+00 0.0000000000000000e+00 0.0000000000000000e+00 
0.0000000000000000e+00 0.0000000000000000e+00 0.0000000000000000e+00 
0.0000000000000000e+00 0.0000000000000000e+00 0.0000000000000000e+00 
0.0000000000000000e+00 0.0000000000000000e+00 0.0000000000000000e+00 
0.0000000000000000e+00 0.0000000000000000e+00 0.0000000000000000e+00 
0.0000000000000000e+00 0.0000000000000000e+00 0.0000000000000000e+00 
0.0000000000000000e+00 0.0000000000000000e+00 0.0000000000000000e+00 
0.0000000000000000e+00 0.0000000000000000e+00 0.0000000000000000e+00 
0.0000000000000000e+00 0.0000000000000000e+00 0.0000000000000000e+00 
0.0000000000000000e+00 0.0000000000000000e+00 0.0000000000000000e+00 
0.0000000000000000e+00 0.0000000000000000e+00 0.0000000000000000e+00 
0.0000000000000000e+00 0.0000000000000000e+00 0.0000000000000000e+00 
0.0000000000000000e+00 0.0000000000000000e+00 0.0000000000000000e+00 
0.0000000000000000e+00 0.0000000000000000e+00 0.0000000000000000e+00 
0.0000000000000000e+00 0.0000000000000000e+00 0.0000000000000000e+00 
0.0000000000000000e+00 0.0000000000000000e+00 0.0000000000000000e+00 
0.0000000000000000e+00 0.0000000000000000e+00 0.0000000000000000e+00 
0.0000000000000000e+00 0.0000000000000000e+00 0.0000000000000000e+00 
0.0000000000000000e+00 0.0000000000000000e+00 0.0000000000000000e+00 
0.0000000000000000e+00 0.0000000000000000e+00 0.0000000000000000e+00 
0.0000000000000000e+00 0.0000000000000000e+00 0.0000000000000000e+00 
0.0000000000000000e+00 0.0000000000000000e+00 0.0000000000000000e+00 
0.0000000000000000e+00 0.0000000000000000e+00 0.0000000000000000e+00 
0.0000000000000000e+00 0.0000000000000000e+00 0.0000000000000000e+00 
0.0000000000000000e+00 0.0000000000000000e+00 0.0000000000000000e+00 
0.0000000000000000e+00 0.0000000000000000e+00 0.0000000000000000e+00 
0.0000000000000000e+00 0.0000000000000000e+00 0.0000000000000000e+00 
0.0000000000000000e+00 0.0000000000000000e+00 0.0000000000000000e+00 
0.0000000000000000e+00 0.0000000000000000e+00 0.0000000000000000e+00 
0.0000000000000000e+00 0.0000000000000000e+00 0.0000000000000000e+00 
0.0000000000000000e+00 0.0000000000000000e+00 0.0000000000000000e+00 
0.0000000000000000e+00 0.0000000000000000e+00 0.0000000000000000e+00 
0.0000000000000000e+00 0.0000000000000000e+00 0.0000000000000000e+00 
0.0000000000000000e+00 0.0000000000000000e+00 0.0000000000000000e+00 
0.0000000000000000e+00 0.0000000000000000e+00 0.0000000000000000e+00 
0.0000000000000000e+00 0.0000000000000000e+00 0.0000000000000000e+00 
0.0000000000000000e+00 0.0000000000000000e+00 0.0000000000000000e+00 
0.0000000000000000e+00 0.0000000000000000e+00 0.0000000000000000e+00 
0.0000000000000000e+00 0.0000000000000000e+00 0.0000000000000000e+00 
0.0000000000000000e+00 0.0000000000000000e+00 0.0000000000000000e+00 
0.0000000000000000e+00 0.0000000000000000e+00 0.0000000000000000e+00 
0.0000000000000000e+00 0.0000000000000000e+00 0.0000000000000000e+00 
0.0000000000000000e+00 0.0000000000000000e+00 0.0000000000000000e+00 
0.0000000000000000e+00 0.0000000000000000e+00 0.0000000000000000e+00 
0.0000000000000000e+00 0.0000000000000000e+00 0.0000000000000000e+00 
0.0000000000000000e+00 0.0000000000000000e+00 0.0000000000000000e+00 
0.0000000000000000e+00 0.0000000000000000e+00 0.0000000000000000e+00 
0.0000000000000000e+00 0.0000000000000000e+00 0.0000000000000000e+00 
0.0000000000000000e+00 0.0000000000000000e+00 0.0000000000000000e+00 
0.0000000000000000e+00 0.0000000000000000e+00 0.0000000000000000e+00 
0.0000000000000000e+00 0.0000000000000000e+00 0.0000000000000000e+00 
0.0000000000000000e+00 0.0000000000000000e+00 0.0000000000000000e+00 
0.0000000000000000e+00 0.0000000000000000e+00 0.0000000000000000e+00 
0.0000000000000000e+00 0.0000000000000000e+00 0.0000000000000000e+00 

VECTORS Forces0 float
-1.2699947720309207e-01 0.0000000000000000e+00 3.7561354956344700e-03 
-2.2241035267324466e-01 0.0000000000000000e+00 7.3276179896426576e-03 
-1.2699947720334823e-01 0.0000000000000000e+00 3.7561354058091123e-03 
-2.2241035244123297e-01 0.0000000000000000e+00 7.3276179889349129e-03 
-2.8276615163558538e-01 0.0000000000000000e+00 2.1613019831805573e-02 
-2.8276615217733619e-01 0.0000000000000000e+00 2.1613019741855054e-02 
-2.3110603976893535e-01 0.0000000000000000e+00 2.8046492123606315e-02 
-2.3110603945873529e-01 0.0000000000000000e+00 2.8046491997123387e-02 
-2.1504316850208807e-01 0.0000000000000000e+00 3.1772791065660166e-02 
-2.1504316865567202e-01 0.0000000000000000e+00 3.1772790974963827e-02 
-2.2676117738727897e-01 0.0000000000000000e+00 3.9381205420542166e-02 
-2.2676117700240014e-01 0.0000000000000000e+00 3.9381205384572536e-02 
-2.7077177686618248e-01 0.0000000000000000e+00 5.6764069295077421e-02 
-2.7077177725390644e-01 0.0000000000000000e+00 5.6764069313229082e-02 
-2.1215083689397538e-01 0.0000000000000000e+00 5.0618403087687842e-02 
-2.1215083658611625e-01 0.0000000000000000e+00 5.0618403195562489e-02 
-1.9171740240568483e-01 0.0000000000000000e+00 4.8714924320368669e-02 
-1.9171740263881007e-01 0.0000000000000000e+00 4.8714924266741705e-02 
-1.9704582155561870e-01 0.0000000000000000e+00 5.2986115687801164e-02 
-1.9704582155664552e-01 0.0000000000000000e+00 5.2986115742205041e-02 
-2.2505085004186137e-01 0.0000000000000000e+00 6.5789558040596927e-02 
-2.2505084957879865e-01 0.0000000000000000e+00 6.5789558094572140e-02 
-1.6757988853744152e-01 0.0000000000000000e+00 5.3273290236054177e-02 
-1.6757988869368992e-01 0.0000000000000000e+00 5.3273290181387711e-02 
-1.4598630840385099e-01 0.0000000000000000e+00 4.8609600906672053e-02 
-1.4598630848102132e-01 0.0000000000000000e+00 4.8609600996983866e-02 
-1.4639997778020336e-01 0.0000000000000000e+00 5.0913870509245431e-02 
-1.4639997808993011e-01 0.0000000000000000e+00 5.0913870562625974e-02 
-1.6041971295656396e-01 0.0000000000000000e+00 5.9242665693219815e-02 
-1.6041971303487748e-01 0.0000000000000000e+00 5.9242665693390900e-02 
-1.1154153245301271e-01 0.0000000000000000e+00 4.3424236184255519e-02 
-1.1154153245294608e-01 0.0000000000000000e+00 4.3424236256122607e-02 
-9.1422923874198966e-02 0.0000000000000000e+00 3.6626548803947730e-02 
-9.1422924417539006e-02 0.0000000000000000e+00 3.6626548804083482e-02 
-8.8307977703797821e-02 0.0000000000000000e+00 3.6234705267219482e-02 
-8.8307977704335835e-02 0.0000000000000000e+00 3.6234705357310888e-02 
-8.9021323822707679e-02 0.0000000000000000e+00 3.7932344568160095e-02 
-8.9021323590779938e-02 0.0000000000000000e+00 3.7932344586244365e-02 
-5.6635514012865540e-02 0.0000000000000000e+00 2.4156264268956673e-02 
-5.6635514321885606e-02 0.0000000000000000e+00 2.4156264340754699e-02 
9.1339535925578086e-02 0.0000000000000000e+00 2.2329081679957768e-01 
-2.4469122638639214e-02 0.0000000000000000e+00 3.0619325976905695e-02 
9.1339535695287771e-02 0.0000000000000000e+00 2.2329081680061655e-01 
-2.4469122637555640e-02 0.0000000000000000e+00 3.0619325940896319e-02 
4.3698747079298889e-01 0.0000000000000000e+00 -1.2492803403725045e-02 
1.2284376339813408e+00 0.0000000000000000e+00 -3.8900688190887552e-02 
4.3698747110066877e-01 0.0000000000000000e+00 -1.2492803421195393e-02 
1.2284376338270893e+00 0.0000000000000000e+00 -3.8900688191054113e-02 
1.2544496252365029e+00 0.0000000000000000e+00 -9.5620453346201631e-02 
1.2544496250818025e+00 0.0000000000000000e+00 -9.5620453453750601e-02 
1.0947492926381286e+00 0.0000000000000000e+00 -1.2894430309281690e-01 
1.0947492925606246e+00 0.0000000000000000e+00 -1.2894430309276694e-01 
1.0774012717970964e+00 0.0000000000000000e+00 -1.5641575749383213e-01 
1.0774012718739010e+00 0.0000000000000000e+00 -1.5641575749341846e-01 
1.0735110954826170e+00 0.0000000000000000e+00 -1.8461080201278501e-01 
1.0735110955596192e+00 0.0000000000000000e+00 -1.8461080203093810e-01 
1.2180336988166354e+00 0.0000000000000000e+00 -2.5141279771874736e-01 
1.2180336986610312e+00 0.0000000000000000e+00 -2.5141279777270603e-01 
1.0209921787555034e+00 0.0000000000000000e+00 -2.3803899925956115e-01 
1.0209921786773954e+00 0.0000000000000000e+00 -2.3803899931362962e-01 
9.9354855957857169e-01 0.0000000000000000e+00 -2.4685257093721569e-01 
9.9354855934727870e-01 0.0000000000000000e+00 -2.4685257095514526e-01 
9.7514029632955512e-01 0.0000000000000000e+00 -2.5731220762631923e-01 
9.7514029632995125e-01 0.0000000000000000e+00 -2.5731220759019996e-01 
1.0856278505049926e+00 0.0000000000000000e+00 -3.1000487285533462e-01 
1.0856278505814212e+00 0.0000000000000000e+00 -3.1000487285532241e-01 
8.9176134784311933e-01 0.0000000000000000e+00 -2.7468033843667150e-01 
8.9176134784359595e-01 0.0000000000000000e+00 -2.7468033841856759e-01 
8.5304645489696396e-01 0.0000000000000000e+00 -2.7500148953208886e-01 
8.5304645466439177e-01 0.0000000000000000e+00 -2.7500148955002479e-01 
8.2162451550203841e-01 0.0000000000000000e+00 -2.7714056464580189e-01 
8.2162451550174098e-01 0.0000000000000000e+00 -2.7714056462783843e-01 
8.8730531369456422e-01 0.0000000000000000e+00 -3.1615684770211494e-01 
8.8730531361694898e-01 0.0000000000000000e+00 -3.1615684773823327e-01 
7.0492739247633496e-01 0.0000000000000000e+00 -2.6182127838610025e-01 
7.0492739247607583e-01 0.0000000000000000e+00 -2.6182127840415548e-01 
6.5571463306042621e-01 0.0000000000000000e+00 -2.4818465897778533e-01 
6.5571463306040734e-01 0.0000000000000000e+00 -2.4818465895973366e-01 
6.1134165876100577e-01 0.0000000000000000e+00 -2.3559944294567134e-01 
6.1134165883873337e-01 0.0000000000000000e+00 -2.3559944296367524e-01 
6.1173455430838009e-01 0.0000000000000000e+00 -2.4075664009771672e-01 
6.1173455430821022e-01 0.0000000000000000e+00 -2.4075664011559544e-01 
4.5034366292338851e-01 0.0000000000000000e+00 -1.7330045995675802e-01 
4.5034366292371814e-01 0.0000000000000000e+00 -1.7330045995677923e-01 
2.2058859396138916e-01 0.0000000000000000e+00 7.6008851246493758e-02 
2.2058859388382518e-01 0.0000000000000000e+00 7.6008851246369982e-02 

VECTORS Displacements0 float
6.9356603593235591e-310 0.0000000000000000e+00 0.0000000000000000e+00 
1.4950945906790226e-03 0.0000000000000000e+00 -2.1044456753846357e-03 
0.0000000000000000e+00 0.0000000000000000e+00 0.0000000000000000e+00 
1.4950945903966296e-03 0.0000000000000000e+00 -2.1044456752767017e-03 
4.3970098798404925e-03 0.0000000000000000e+00 -4.1873688809669161e-03 
4.3970098793928046e-03 0.0000000000000000e+00 -4.1873688809115454e-03 
9.0072041600456395e-03 0.0000000000000000e+00 -6.2240447548701609e-03 
9.0072041596202350e-03 0.0000000000000000e+00 -6.2240447549769731e-03 
1.5173819757750243e-02 0.0000000000000000e+00 -8.3543574379401232e-03 
1.5173819757553346e-02 0.0000000000000000e+00 -8.3543574382377566e-03 
2.2897832418267535e-02 0.0000000000000000e+00 -1.0616501113679030e-02 
2.2897832418355371e-02 0.0000000000000000e+00 -1.0616501114113337e-02 
3.2094316749201775e-02 0.0000000000000000e+00 -1.2987816025283629e-02 
3.2094316749674001e-02 0.0000000000000000e+00 -1.2987816025795927e-02 
4.2587186204786749e-02 0.0000000000000000e+00 -1.5434430149416398e-02 
4.2587186205746988e-02 0.0000000000000000e+00 -1.5434430149888887e-02 
5.4168736971072141e-02 0.0000000000000000e+00 -1.7960330261983046e-02 
5.4168736972250359e-02 0.0000000000000000e+00 -1.7960330262241343e-02 
6.6693740985932989e-02 0.0000000000000000e+00 -2.0612151813796661e-02 
6.6693740986926806e-02 0.0000000000000000e+00 -2.0612151813735241e-02 
8.0101188945620752e-02 0.0000000000000000e+00 -2.3445219244769128e-02 
8.0101188946198165e-02 0.0000000000000000e+00 -2.3445219244468928e-02 
9.4375988655870893e-02 0.0000000000000000e+00 -2.6492824912839077e-02 
9.4375988656001122e-02 0.0000000000000000e+00 -2.6492824912489398e-02 
1.0949579601823450e-01 0.0000000000000000e+00 -2.9760419920627258e-02 
1.0949579601815417e-01 0.0000000000000000e+00 -2.9760419920378846e-02 
1.2542831625893464e-01 0.0000000000000000e+00 -3.3238430666453801e-02 
1.2542831625888820e-01 0.0000000000000000e+00 -3.3238430666383462e-02 
1.4213521699673487e-01 0.0000000000000000e+00 -3.6900979177420565e-02 
1.4213521699683940e-01 0.0000000000000000e+00 -3.6900979177475007e-02 
1.5954941546128704e-01 0.0000000000000000e+00 -4.0694267537870733e-02 
1.5954941546157783e-01 0.0000000000000000e+00 -4.0694267537951870e-02 
1.7754068425220573e-01 0.0000000000000000e+00 -4.4541966810815292e-02 
1.7754068425258560e-01 0.0000000000000000e+00 -4.4541966810837934e-02 
1.9593894816996432e-01 0.0000000000000000e+00 -4.8379935038133280e-02 
1.9593894817030519e-01 0.0000000000000000e+00 -4.8379935038066667e-02 
2.1458888028572540e-01 0.0000000000000000e+00 -5.2177052181913083e-02 
2.1458888028595310e-01 0.0000000000000000e+00 -5.2177052181790744e-02 
2.3337187579341570e-01 0.0000000000000000e+00 -5.5923251234610935e-02 
2.3337187579351754e-01 0.0000000000000000e+00 -5.5923251234434618e-02 
2.5586082989934023e-01 0.0000000000000000e+00 -4.0812204624327858e-02 
2.5218812708257349e-01 0.0000000000000000e+00 -5.9619748789817531e-02 
2.5586082989930520e-01 0.0000000000000000e+00 -4.0812204624216732e-02 
2.5218812708257937e-01 0.0000000000000000e+00 -5.9619748789588957e-02 
0.0000000000000000e+00 0.0000000000000000e+00 0.0000000000000000e+00 
1.5216448757917240e-03 0.0000000000000000e+00 1.8045424154501835e-03 
0.0000000000000000e+00 0.0000000000000000e+00 0.0000000000000000e+00 
1.5216448755343726e-03 0.0000000000000000e+00 1.8045424153727441e-03 
4.6499461171544002e-03 0.0000000000000000e+00 3.4497073594194371e-03 
4.6499461167250266e-03 0.0000000000000000e+00 3.4497073594023145e-03 
9.5730189032902473e-03 0.0000000000000000e+00 4.7969129220643359e-03 
9.5730189028838675e-03 0.0000000000000000e+00 4.7969129221911719e-03 
1.6153120972024784e-02 0.0000000000000000e+00 5.8857328154685576e-03 
1.6153120971854253e-02 0.0000000000000000e+00 5.8857328157022907e-03 
2.4365525428413904e-02 0.0000000000000000e+00 6.6581977900273493e-03 
2.4365525428628201e-02 0.0000000000000000e+00 6.6581977902777098e-03 
3.4092106398178515e-02 0.0000000000000000e+00 7.0359480714232720e-03 
3.4092106398797555e-02 0.0000000000000000e+00 7.0359480716066080e-03 
4.5107944632418608e-02 0.0000000000000000e+00 6.9870313953324251e-03 
4.5107944633468497e-02 0.0000000000000000e+00 6.9870313952897362e-03 
5.7199808057422828e-02 0.0000000000000000e+00 6.5457137622088567e-03 
5.7199808058560009e-02 0.0000000000000000e+00 6.5457137618863750e-03 
7.0228752277061532e-02 0.0000000000000000e+00 5.7774205908283039e-03 
7.0228752277932113e-02 0.0000000000000000e+00 5.7774205903494830e-03 
8.4151552638953284e-02 0.0000000000000000e+00 4.7232403067999093e-03 
8.4151552639322821e-02 0.0000000000000000e+00 4.7232403064129272e-03 
9.8948509894981024e-02 0.0000000000000000e+00 3.3890758563575869e-03 
9.8948509895000480e-02 0.0000000000000000e+00 3.3890758562125614e-03 
1.1460092157921949e-01 0.0000000000000000e+00 1.7578757402290902e-03 
1.1460092157911188e-01 0.0000000000000000e+00 1.7578757403302456e-03 
1.3106135792056003e-01 0.0000000000000000e+00 -1.8724552340525829e-04 
1.3106135792057352e-01 0.0000000000000000e+00 -1.8724552318159242e-04 
1.4826951617352963e-01 0.0000000000000000e+00 -2.4682874484729033e-03 
1.4826951617371276e-01 0.0000000000000000e+00 -2.4682874482564233e-03 
1.6611595438666180e-01 0.0000000000000000e+00 -5.1007477112787946e-03 
1.6611595438704405e-01 0.0000000000000000e+00 -5.1007477111808920e-03 
1.8444626764767250e-01 0.0000000000000000e+00 -8.0731871012655974e-03 
1.8444626764806346e-01 0.0000000000000000e+00 -8.0731871012723576e-03 
2.0307701666016983e-01 0.0000000000000000e+00 -1.1325787993274343e-02 
2.0307701666044906e-01 0.0000000000000000e+00 -1.1325787993322794e-02 
2.2186462124132750e-01 0.0000000000000000e+00 -1.4779779092872784e-02 
2.2186462124146278e-01 0.0000000000000000e+00 -1.4779779092906902e-02 
2.4070819419344766e-01 0.0000000000000000e+00 -1.8363058939412459e-02 
2.4070819419349856e-01 0.0000000000000000e+00 -1.8363058939430341e-02 
2.5953955792367922e-01 0.0000000000000000e+00 -2.2011459779017407e-02 
2.5953955792363409e-01 0.0000000000000000e+00 -2.2011459779001725e-02 

