# vtk DataFile Version 2.0

ASCII

DATASET UNSTRUCTURED_GRID

POINTS 86 float 

5.0000000000000003e-02  0.0000000000000000e+00  0.0000000000000000e+00
5.0000000000000003e-02  0.0000000000000000e+00  5.0000000000000003e-02
5.0000000000000003e-02  2.9999999999999999e-01  0.0000000000000000e+00
5.0000000000000003e-02  2.9999999999999999e-01  5.0000000000000003e-02
5.0000000000000003e-02  0.0000000000000000e+00  1.0000000000000001e-01
5.0000000000000003e-02  2.9999999999999999e-01  1.0000000000000001e-01
5.0000000000000003e-02  0.0000000000000000e+00  1.4999999999999999e-01
5.0000000000000003e-02  2.9999999999999999e-01  1.4999999999999999e-01
5.0000000000000003e-02  0.0000000000000000e+00  2.0000000000000001e-01
5.0000000000000003e-02  2.9999999999999999e-01  2.0000000000000001e-01
5.0000000000000003e-02  0.0000000000000000e+00  2.5000000000000000e-01
5.0000000000000003e-02  2.9999999999999999e-01  2.5000000000000000e-01
5.0000000000000003e-02  0.0000000000000000e+00  2.9999999999999999e-01
5.0000000000000003e-02  2.9999999999999999e-01  2.9999999999999999e-01
5.0000000000000003e-02  0.0000000000000000e+00  3.4999999999999998e-01
5.0000000000000003e-02  2.9999999999999999e-01  3.4999999999999998e-01
5.0000000000000003e-02  0.0000000000000000e+00  4.0000000000000002e-01
5.0000000000000003e-02  2.9999999999999999e-01  4.0000000000000002e-01
5.0000000000000003e-02  0.0000000000000000e+00  4.5000000000000001e-01
5.0000000000000003e-02  2.9999999999999999e-01  4.5000000000000001e-01
5.0000000000000003e-02  0.0000000000000000e+00  5.0000000000000000e-01
5.0000000000000003e-02  2.9999999999999999e-01  5.0000000000000000e-01
5.0000000000000003e-02  0.0000000000000000e+00  5.5000000000000004e-01
5.0000000000000003e-02  2.9999999999999999e-01  5.5000000000000004e-01
5.0000000000000003e-02  0.0000000000000000e+00  5.9999999999999998e-01
5.0000000000000003e-02  2.9999999999999999e-01  5.9999999999999998e-01
5.0000000000000003e-02  0.0000000000000000e+00  6.5000000000000002e-01
5.0000000000000003e-02  2.9999999999999999e-01  6.5000000000000002e-01
5.0000000000000003e-02  0.0000000000000000e+00  6.9999999999999996e-01
5.0000000000000003e-02  2.9999999999999999e-01  6.9999999999999996e-01
5.0000000000000003e-02  0.0000000000000000e+00  7.5000000000000000e-01
5.0000000000000003e-02  2.9999999999999999e-01  7.5000000000000000e-01
5.0000000000000003e-02  0.0000000000000000e+00  8.0000000000000004e-01
5.0000000000000003e-02  2.9999999999999999e-01  8.0000000000000004e-01
5.0000000000000003e-02  0.0000000000000000e+00  8.4999999999999998e-01
5.0000000000000003e-02  2.9999999999999999e-01  8.4999999999999998e-01
5.0000000000000003e-02  0.0000000000000000e+00  9.0000000000000002e-01
5.0000000000000003e-02  2.9999999999999999e-01  9.0000000000000002e-01
5.0000000000000003e-02  0.0000000000000000e+00  9.4999999999999996e-01
5.0000000000000003e-02  2.9999999999999999e-01  9.4999999999999996e-01
0.0000000000000000e+00  0.0000000000000000e+00  1.0000000000000000e+00
5.0000000000000003e-02  0.0000000000000000e+00  1.0000000000000000e+00
0.0000000000000000e+00  2.9999999999999999e-01  1.0000000000000000e+00
5.0000000000000003e-02  2.9999999999999999e-01  1.0000000000000000e+00
-5.0000000000000003e-02  0.0000000000000000e+00  0.0000000000000000e+00
-5.0000000000000003e-02  0.0000000000000000e+00  5.0000000000000003e-02
-5.0000000000000003e-02  2.9999999999999999e-01  0.0000000000000000e+00
-5.0000000000000003e-02  2.9999999999999999e-01  5.0000000000000003e-02
-5.0000000000000003e-02  0.0000000000000000e+00  1.0000000000000001e-01
-5.0000000000000003e-02  2.9999999999999999e-01  1.0000000000000001e-01
-5.0000000000000003e-02  0.0000000000000000e+00  1.4999999999999999e-01
-5.0000000000000003e-02  2.9999999999999999e-01  1.4999999999999999e-01
-5.0000000000000003e-02  0.0000000000000000e+00  2.0000000000000001e-01
-5.0000000000000003e-02  2.9999999999999999e-01  2.0000000000000001e-01
-5.0000000000000003e-02  0.0000000000000000e+00  2.5000000000000000e-01
-5.0000000000000003e-02  2.9999999999999999e-01  2.5000000000000000e-01
-5.0000000000000003e-02  0.0000000000000000e+00  2.9999999999999999e-01
-5.0000000000000003e-02  2.9999999999999999e-01  2.9999999999999999e-01
-5.0000000000000003e-02  0.0000000000000000e+00  3.4999999999999998e-01
-5.0000000000000003e-02  2.9999999999999999e-01  3.4999999999999998e-01
-5.0000000000000003e-02  0.0000000000000000e+00  4.0000000000000002e-01
-5.0000000000000003e-02  2.9999999999999999e-01  4.0000000000000002e-01
-5.0000000000000003e-02  0.0000000000000000e+00  4.5000000000000001e-01
-5.0000000000000003e-02  2.9999999999999999e-01  4.5000000000000001e-01
-5.0000000000000003e-02  0.0000000000000000e+00  5.0000000000000000e-01
-5.0000000000000003e-02  2.9999999999999999e-01  5.0000000000000000e-01
-5.0000000000000003e-02  0.0000000000000000e+00  5.5000000000000004e-01
-5.0000000000000003e-02  2.9999999999999999e-01  5.5000000000000004e-01
-5.0000000000000003e-02  0.0000000000000000e+00  5.9999999999999998e-01
-5.0000000000000003e-02  2.9999999999999999e-01  5.9999999999999998e-01
-5.0000000000000003e-02  0.0000000000000000e+00  6.5000000000000002e-01
-5.0000000000000003e-02  2.9999999999999999e-01  6.5000000000000002e-01
-5.0000000000000003e-02  0.0000000000000000e+00  6.9999999999999996e-01
-5.0000000000000003e-02  2.9999999999999999e-01  6.9999999999999996e-01
-5.0000000000000003e-02  0.0000000000000000e+00  7.5000000000000000e-01
-5.0000000000000003e-02  2.9999999999999999e-01  7.5000000000000000e-01
-5.0000000000000003e-02  0.0000000000000000e+00  8.0000000000000004e-01
-5.0000000000000003e-02  2.9999999999999999e-01  8.0000000000000004e-01
-5.0000000000000003e-02  0.0000000000000000e+00  8.4999999999999998e-01
-5.0000000000000003e-02  2.9999999999999999e-01  8.4999999999999998e-01
-5.0000000000000003e-02  0.0000000000000000e+00  9.0000000000000002e-01
-5.0000000000000003e-02  2.9999999999999999e-01  9.0000000000000002e-01
-5.0000000000000003e-02  0.0000000000000000e+00  9.4999999999999996e-01
-5.0000000000000003e-02  2.9999999999999999e-01  9.4999999999999996e-01
-5.0000000000000003e-02  0.0000000000000000e+00  1.0000000000000000e+00
-5.0000000000000003e-02  2.9999999999999999e-01  1.0000000000000000e+00

CELLS 0 0


CELL_TYPES 0


POINT_DATA 86

VECTORS VertexNormals float

0.0000000000000000e+00 0.0000000000000000e+00 0.0000000000000000e+00 
0.0000000000000000e+00 0.0000000000000000e+00 0.0000000000000000e+00 
0.0000000000000000e+00 0.0000000000000000e+00 0.0000000000000000e+00 
0.0000000000000000e+00 0.0000000000000000e+00 0.0000000000000000e+00 
0.0000000000000000e+00 0.0000000000000000e+00 0.0000000000000000e+00 
0.0000000000000000e+00 0.0000000000000000e+00 0.0000000000000000e+00 
0.0000000000000000e+00 0.0000000000000000e+00 0.0000000000000000e+00 
0.0000000000000000e+00 0.0000000000000000e+00 0.0000000000000000e+00 
0.0000000000000000e+00 0.0000000000000000e+00 0.0000000000000000e+00 
0.0000000000000000e+00 0.0000000000000000e+00 0.0000000000000000e+00 
0.0000000000000000e+00 0.0000000000000000e+00 0.0000000000000000e+00 
0.0000000000000000e+00 0.0000000000000000e+00 0.0000000000000000e+00 
0.0000000000000000e+00 0.0000000000000000e+00 0.0000000000000000e+00 
0.0000000000000000e+00 0.0000000000000000e+00 0.0000000000000000e+00 
0.0000000000000000e+00 0.0000000000000000e+00 0.0000000000000000e+00 
0.0000000000000000e+00 0.0000000000000000e+00 0.0000000000000000e+00 
0.0000000000000000e+00 0.0000000000000000e+00 0.0000000000000000e+00 
0.0000000000000000e+00 0.0000000000000000e+00 0.0000000000000000e+00 
0.0000000000000000e+00 0.0000000000000000e+00 0.0000000000000000e+00 
0.0000000000000000e+00 0.0000000000000000e+00 0.0000000000000000e+00 
0.0000000000000000e+00 0.0000000000000000e+00 0.0000000000000000e+00 
0.0000000000000000e+00 0.0000000000000000e+00 0.0000000000000000e+00 
0.0000000000000000e+00 0.0000000000000000e+00 0.0000000000000000e+00 
0.0000000000000000e+00 0.0000000000000000e+00 0.0000000000000000e+00 
0.0000000000000000e+00 0.0000000000000000e+00 0.0000000000000000e+00 
0.0000000000000000e+00 0.0000000000000000e+00 0.0000000000000000e+00 
0.0000000000000000e+00 0.0000000000000000e+00 0.0000000000000000e+00 
0.0000000000000000e+00 0.0000000000000000e+00 0.0000000000000000e+00 
0.0000000000000000e+00 0.0000000000000000e+00 0.0000000000000000e+00 
0.0000000000000000e+00 0.0000000000000000e+00 0.0000000000000000e+00 
0.0000000000000000e+00 0.0000000000000000e+00 0.0000000000000000e+00 
0.0000000000000000e+00 0.0000000000000000e+00 0.0000000000000000e+00 
0.0000000000000000e+00 0.0000000000000000e+00 0.0000000000000000e+00 
0.0000000000000000e+00 0.0000000000000000e+00 0.0000000000000000e+00 
0.0000000000000000e+00 0.0000000000000000e+00 0.0000000000000000e+00 
0.0000000000000000e+00 0.0000000000000000e+00 0.0000000000000000e+00 
0.0000000000000000e+00 0.0000000000000000e+00 0.0000000000000000e+00 
0.0000000000000000e+00 0.0000000000000000e+00 0.0000000000000000e+00 
0.0000000000000000e+00 0.0000000000000000e+00 0.0000000000000000e+00 
0.0000000000000000e+00 0.0000000000000000e+00 0.0000000000000000e+00 
0.0000000000000000e+00 0.0000000000000000e+00 0.0000000000000000e+00 
0.0000000000000000e+00 0.0000000000000000e+00 0.0000000000000000e+00 
0.0000000000000000e+00 0.0000000000000000e+00 0.0000000000000000e+00 
0.0000000000000000e+00 0.0000000000000000e+00 0.0000000000000000e+00 
0.0000000000000000e+00 0.0000000000000000e+00 0.0000000000000000e+00 
0.0000000000000000e+00 0.0000000000000000e+00 0.0000000000000000e+00 
0.0000000000000000e+00 0.0000000000000000e+00 0.0000000000000000e+00 
0.0000000000000000e+00 0.0000000000000000e+00 0.0000000000000000e+00 
0.0000000000000000e+00 0.0000000000000000e+00 0.0000000000000000e+00 
0.0000000000000000e+00 0.0000000000000000e+00 0.0000000000000000e+00 
0.0000000000000000e+00 0.0000000000000000e+00 0.0000000000000000e+00 
0.0000000000000000e+00 0.0000000000000000e+00 0.0000000000000000e+00 
0.0000000000000000e+00 0.0000000000000000e+00 0.0000000000000000e+00 
0.0000000000000000e+00 0.0000000000000000e+00 0.0000000000000000e+00 
0.0000000000000000e+00 0.0000000000000000e+00 0.0000000000000000e+00 
0.0000000000000000e+00 0.0000000000000000e+00 0.0000000000000000e+00 
0.0000000000000000e+00 0.0000000000000000e+00 0.0000000000000000e+00 
0.0000000000000000e+00 0.0000000000000000e+00 0.0000000000000000e+00 
0.0000000000000000e+00 0.0000000000000000e+00 0.0000000000000000e+00 
0.0000000000000000e+00 0.0000000000000000e+00 0.0000000000000000e+00 
0.0000000000000000e+00 0.0000000000000000e+00 0.0000000000000000e+00 
0.0000000000000000e+00 0.0000000000000000e+00 0.0000000000000000e+00 
0.0000000000000000e+00 0.0000000000000000e+00 0.0000000000000000e+00 
0.0000000000000000e+00 0.0000000000000000e+00 0.0000000000000000e+00 
0.0000000000000000e+00 0.0000000000000000e+00 0.0000000000000000e+00 
0.0000000000000000e+00 0.0000000000000000e+00 0.0000000000000000e+00 
0.0000000000000000e+00 0.0000000000000000e+00 0.0000000000000000e+00 
0.0000000000000000e+00 0.0000000000000000e+00 0.0000000000000000e+00 
0.0000000000000000e+00 0.0000000000000000e+00 0.0000000000000000e+00 
0.0000000000000000e+00 0.0000000000000000e+00 0.0000000000000000e+00 
0.0000000000000000e+00 0.0000000000000000e+00 0.0000000000000000e+00 
0.0000000000000000e+00 0.0000000000000000e+00 0.0000000000000000e+00 
0.0000000000000000e+00 0.0000000000000000e+00 0.0000000000000000e+00 
0.0000000000000000e+00 0.0000000000000000e+00 0.0000000000000000e+00 
0.0000000000000000e+00 0.0000000000000000e+00 0.0000000000000000e+00 
0.0000000000000000e+00 0.0000000000000000e+00 0.0000000000000000e+00 
0.0000000000000000e+00 0.0000000000000000e+00 0.0000000000000000e+00 
0.0000000000000000e+00 0.0000000000000000e+00 0.0000000000000000e+00 
0.0000000000000000e+00 0.0000000000000000e+00 0.0000000000000000e+00 
0.0000000000000000e+00 0.0000000000000000e+00 0.0000000000000000e+00 
0.0000000000000000e+00 0.0000000000000000e+00 0.0000000000000000e+00 
0.0000000000000000e+00 0.0000000000000000e+00 0.0000000000000000e+00 
0.0000000000000000e+00 0.0000000000000000e+00 0.0000000000000000e+00 
0.0000000000000000e+00 0.0000000000000000e+00 0.0000000000000000e+00 
0.0000000000000000e+00 0.0000000000000000e+00 0.0000000000000000e+00 
0.0000000000000000e+00 0.0000000000000000e+00 0.0000000000000000e+00 

VECTORS Forces0 float
-2.8624343629884796e-01 0.0000000000000000e+00 9.8692369628165452e-03 
-6.2364114395237980e-01 0.0000000000000000e+00 3.2192357881526974e-02 
-2.8624343622763565e-01 0.0000000000000000e+00 9.8692369602041731e-03 
-6.2364114395317183e-01 0.0000000000000000e+00 3.2192357697368071e-02 
-7.0917841888830635e-01 0.0000000000000000e+00 7.8879562699188110e-02 
-7.0917841860643105e-01 0.0000000000000000e+00 7.8879562620271404e-02 
-6.0117536196395305e-01 0.0000000000000000e+00 1.0381029313056017e-01 
-6.0117536161123653e-01 0.0000000000000000e+00 1.0381029299952396e-01 
-5.8095908258931594e-01 0.0000000000000000e+00 1.2248358525345593e-01 
-5.8095908258468698e-01 0.0000000000000000e+00 1.2248358536026914e-01 
-5.9942811267181850e-01 0.0000000000000000e+00 1.4875386535530619e-01 
-5.9942811281209951e-01 0.0000000000000000e+00 1.4875386527698750e-01 
-7.0923158227013405e-01 0.0000000000000000e+00 2.1334636368866144e-01 
-7.0923158149393994e-01 0.0000000000000000e+00 2.1334636374124516e-01 
-5.9153913985292172e-01 0.0000000000000000e+00 2.0605075968549230e-01 
-5.9153913964632931e-01 0.0000000000000000e+00 2.0605075971209630e-01 
-5.7090084132210672e-01 0.0000000000000000e+00 2.1468133850383370e-01 
-5.7090084097121041e-01 0.0000000000000000e+00 2.1468133847728632e-01 
-5.8391979361163049e-01 0.0000000000000000e+00 2.3546701229275821e-01 
-5.8391979332891941e-01 0.0000000000000000e+00 2.3546701239878542e-01 
-6.8214108641319682e-01 0.0000000000000000e+00 2.9983311061573881e-01 
-6.8214108633980264e-01 0.0000000000000000e+00 2.9983311061505663e-01 
-5.6535811505804079e-01 0.0000000000000000e+00 2.6727379193669332e-01 
-5.6535811470528363e-01 0.0000000000000000e+00 2.6727379183125710e-01 
-5.4405479195870465e-01 0.0000000000000000e+00 2.6759787981702254e-01 
-5.4405479224049014e-01 0.0000000000000000e+00 2.6759787963215520e-01 
-5.5180255747273577e-01 0.0000000000000000e+00 2.8146999616726742e-01 
-5.5180255768358766e-01 0.0000000000000000e+00 2.8146999611351597e-01 
-6.3927981552548474e-01 0.0000000000000000e+00 3.3783039994381270e-01 
-6.3927981516869126e-01 0.0000000000000000e+00 3.3783039994373310e-01 
-5.2805844628866916e-01 0.0000000000000000e+00 2.8209149671077333e-01 
-5.2805844642955480e-01 0.0000000000000000e+00 2.8209149668373806e-01 
-5.0597525247933617e-01 0.0000000000000000e+00 2.7056652658854519e-01 
-5.0597525234118723e-01 0.0000000000000000e+00 2.7056652661501845e-01 
-5.1009360702253748e-01 0.0000000000000000e+00 2.7229116132063835e-01 
-5.1009360695404482e-01 0.0000000000000000e+00 2.7229116134746123e-01 
-5.7411828571628942e-01 0.0000000000000000e+00 3.0947673828558686e-01 
-5.7411828557496347e-01 0.0000000000000000e+00 3.0947673817948790e-01 
-5.2437005382625357e-01 0.0000000000000000e+00 2.7116949741615975e-01 
-5.2437005403573833e-01 0.0000000000000000e+00 2.7116949744237678e-01 
-1.5672744350494941e-01 0.0000000000000000e+00 -2.9641888493883650e-01 
-2.8531062931715229e-01 0.0000000000000000e+00 -3.9364633751349590e-02 
-1.5672744357176249e-01 0.0000000000000000e+00 -2.9641888478045064e-01 
-2.8531062945771141e-01 0.0000000000000000e+00 -3.9364633830557424e-02 
5.8619213410439119e-01 0.0000000000000000e+00 -2.9513421155570322e-02 
1.6180797988506377e+00 0.0000000000000000e+00 -7.5074742057068058e-02 
5.8619213389494862e-01 0.0000000000000000e+00 -2.9513421076017357e-02 
1.6180797989938513e+00 0.0000000000000000e+00 -7.5074742214991289e-02 
1.6576159821976979e+00 0.0000000000000000e+00 -1.8368932034747801e-01 
1.6576159818439866e+00 0.0000000000000000e+00 -1.8368932037297045e-01 
1.4309879900440299e+00 0.0000000000000000e+00 -2.4321453948246030e-01 
1.4309879902557030e+00 0.0000000000000000e+00 -2.4321453940301715e-01 
1.3953873009195026e+00 0.0000000000000000e+00 -2.9120716064917063e-01 
1.3953873009197777e+00 0.0000000000000000e+00 -2.9120716062277618e-01 
1.3842578134828372e+00 0.0000000000000000e+00 -3.4223253487127142e-01 
1.3842578134116874e+00 0.0000000000000000e+00 -3.4223253500465722e-01 
1.5590145629430470e+00 0.0000000000000000e+00 -4.6641604424756211e-01 
1.5590145629422212e+00 0.0000000000000000e+00 -4.6641604422173732e-01 
1.2903236968092273e+00 0.0000000000000000e+00 -4.4553331680308284e-01 
1.2903236970200918e+00 0.0000000000000000e+00 -4.4553331677679814e-01 
1.2436081371761483e+00 0.0000000000000000e+00 -4.6387898836532160e-01 
1.2436081371062950e+00 0.0000000000000000e+00 -4.6387898833875318e-01 
1.2168559715452500e+00 0.0000000000000000e+00 -4.8824789830721688e-01 
1.2168559719002312e+00 0.0000000000000000e+00 -4.8824789836004096e-01 
1.3527708119285282e+00 0.0000000000000000e+00 -5.9105133263888932e-01 
1.3527708116466723e+00 0.0000000000000000e+00 -5.9105133263886933e-01 
1.1080055865829768e+00 0.0000000000000000e+00 -5.1971941167666313e-01 
1.1080055863016749e+00 0.0000000000000000e+00 -5.1971941167652869e-01 
1.0606318569901798e+00 0.0000000000000000e+00 -5.1744487203598388e-01 
1.0606318570607389e+00 0.0000000000000000e+00 -5.1744487208885870e-01 
1.0324242013486800e+00 0.0000000000000000e+00 -5.2304336635285387e-01 
1.0324242013498190e+00 0.0000000000000000e+00 -5.2304336629974169e-01 
1.1424998854661441e+00 0.0000000000000000e+00 -5.9921262442772449e-01 
1.1424998855362307e+00 0.0000000000000000e+00 -5.9921262442759726e-01 
9.3588865198192506e-01 0.0000000000000000e+00 -4.9568583736842664e-01 
9.3588865198140125e-01 0.0000000000000000e+00 -4.9568583734208005e-01 
8.9482949923671684e-01 0.0000000000000000e+00 -4.7392709888216866e-01 
8.9482949923566613e-01 0.0000000000000000e+00 -4.7392709896133667e-01 
8.7137957539040634e-01 0.0000000000000000e+00 -4.6127285946574370e-01 
8.7137957539036093e-01 0.0000000000000000e+00 -4.6127285949219382e-01 
9.3945214462687332e-01 0.0000000000000000e+00 -4.9510392210802340e-01 
9.3945214462846693e-01 0.0000000000000000e+00 -4.9510392218710358e-01 
7.8157634184036961e-01 0.0000000000000000e+00 -4.1936664027990311e-01 
7.8157634177050250e-01 0.0000000000000000e+00 -4.1936664030635490e-01 
2.8769130978801510e-01 0.0000000000000000e+00 -1.8623726312799702e-01 
2.8769130978802088e-01 0.0000000000000000e+00 -1.8623726310153266e-01 

VECTORS Displacements0 float
6.9356603593235591e-310 0.0000000000000000e+00 0.0000000000000000e+00 
1.8686894985405725e-03 0.0000000000000000e+00 -2.9002698970698789e-03 
0.0000000000000000e+00 0.0000000000000000e+00 0.0000000000000000e+00 
1.8686894983072613e-03 0.0000000000000000e+00 -2.9002698969257017e-03 
5.9431199093212964e-03 0.0000000000000000e+00 -5.9445379898682331e-03 
5.9431199088355721e-03 0.0000000000000000e+00 -5.9445379896895115e-03 
1.2662234466986302e-02 0.0000000000000000e+00 -9.0258295461169702e-03 
1.2662234466325025e-02 0.0000000000000000e+00 -9.0258295460225214e-03 
2.1708852847306462e-02 0.0000000000000000e+00 -1.2284181389531142e-02 
2.1708852846619716e-02 0.0000000000000000e+00 -1.2284181389534661e-02 
3.2922014019646693e-02 0.0000000000000000e+00 -1.5781042573905758e-02 
3.2922014019097584e-02 0.0000000000000000e+00 -1.5781042574008579e-02 
4.6090257390807451e-02 0.0000000000000000e+00 -1.9551769515923842e-02 
4.6090257390492710e-02 0.0000000000000000e+00 -1.9551769516058238e-02 
6.0992640770797205e-02 0.0000000000000000e+00 -2.3624572818333862e-02 
6.0992640770646638e-02 0.0000000000000000e+00 -2.3624572818410603e-02 
7.7418473113334621e-02 0.0000000000000000e+00 -2.8039289412956133e-02 
7.7418473113275862e-02 0.0000000000000000e+00 -2.8039289412903252e-02 
9.5233513054629751e-02 0.0000000000000000e+00 -3.2848888963783886e-02 
9.5233513054497634e-02 0.0000000000000000e+00 -3.2848888963606319e-02 
1.1436353920436496e-01 0.0000000000000000e+00 -3.8081615155554700e-02 
1.1436353920410050e-01 0.0000000000000000e+00 -3.8081615155286762e-02 
1.3474231362525677e-01 0.0000000000000000e+00 -4.3709497881859613e-02 
1.3474231362480957e-01 0.0000000000000000e+00 -4.3709497881537912e-02 
1.5623452256834669e-01 0.0000000000000000e+00 -4.9636208580369344e-02 
1.5623452256768328e-01 0.0000000000000000e+00 -4.9636208580073102e-02 
1.7863621652769035e-01 0.0000000000000000e+00 -5.5731627651187235e-02 
1.7863621652698211e-01 0.0000000000000000e+00 -5.5731627651053252e-02 
2.0168856643904090e-01 0.0000000000000000e+00 -6.1865489882051469e-02 
2.0168856643849595e-01 0.0000000000000000e+00 -6.1865489882151431e-02 
2.2512701988166942e-01 0.0000000000000000e+00 -6.7944759536542554e-02 
2.2512701988138481e-01 0.0000000000000000e+00 -6.7944759536801805e-02 
2.4871822098250748e-01 0.0000000000000000e+00 -7.3928120075809622e-02 
2.4871822098250515e-01 0.0000000000000000e+00 -7.3928120076098669e-02 
2.7232213472528538e-01 0.0000000000000000e+00 -7.9834084177877226e-02 
2.7232213472536504e-01 0.0000000000000000e+00 -7.9834084178048367e-02 
2.9589160247677154e-01 0.0000000000000000e+00 -8.5706524803535869e-02 
2.9589160247678631e-01 0.0000000000000000e+00 -8.5706524803557407e-02 
3.1943905580123955e-01 0.0000000000000000e+00 -9.1581292262688713e-02 
3.1943905580107818e-01 0.0000000000000000e+00 -9.1581292262596703e-02 
3.4887495508517924e-01 0.0000000000000000e+00 -7.3929732584752911e-02 
3.4298107025543334e-01 0.0000000000000000e+00 -9.7466810872358131e-02 
3.4887495508482197e-01 0.0000000000000000e+00 -7.3929732584726696e-02 
3.4298107025514984e-01 0.0000000000000000e+00 -9.7466810872214954e-02 
0.0000000000000000e+00 0.0000000000000000e+00 0.0000000000000000e+00 
2.1058288720228009e-03 0.0000000000000000e+00 2.7012264206871706e-03 
0.0000000000000000e+00 0.0000000000000000e+00 0.0000000000000000e+00 
2.1058288718104746e-03 0.0000000000000000e+00 2.7012264205657148e-03 
6.6704187445468782e-03 0.0000000000000000e+00 5.2285823729763805e-03 
6.6704187440143172e-03 0.0000000000000000e+00 5.2285823728861211e-03 
1.4078120072769439e-02 0.0000000000000000e+00 7.2242761278051466e-03 
1.4078120072102896e-02 0.0000000000000000e+00 7.2242761278404049e-03 
2.4003671350156710e-02 0.0000000000000000e+00 8.6141238503161521e-03 
2.4003671349517895e-02 0.0000000000000000e+00 8.6141238504599208e-03 
3.6208333738682236e-02 0.0000000000000000e+00 9.3094678771473097e-03 
3.6208333738229584e-02 0.0000000000000000e+00 9.3094678773236444e-03 
5.0426269089071767e-02 0.0000000000000000e+00 9.2674104365525443e-03 
5.0426269088841173e-02 0.0000000000000000e+00 9.2674104367089626e-03 
6.6379330501828301e-02 0.0000000000000000e+00 8.4985010574410696e-03 
6.6379330501776940e-02 0.0000000000000000e+00 8.4985010575147606e-03 
8.3861705506027590e-02 0.0000000000000000e+00 7.0449717552698429e-03 
8.3861705505961712e-02 0.0000000000000000e+00 7.0449717552689929e-03 
1.0273772578946651e-01 0.0000000000000000e+00 4.9452780577252256e-03 
1.0273772578926031e-01 0.0000000000000000e+00 4.9452780577211499e-03 
1.2292368883233779e-01 0.0000000000000000e+00 2.1942881509190203e-03 
1.2292368883193291e-01 0.0000000000000000e+00 2.1942881509548684e-03 
1.4429085765332475e-01 0.0000000000000000e+00 -1.2344000134953061e-03 
1.4429085765271740e-01 0.0000000000000000e+00 -1.2344000133522126e-03 
1.6664651413359366e-01 0.0000000000000000e+00 -5.3534581949145092e-03 
1.6664651413293133e-01 0.0000000000000000e+00 -5.3534581946469055e-03 
1.8971591334878501e-01 0.0000000000000000e+00 -1.0109722780732031e-02 
1.8971591334819107e-01 0.0000000000000000e+00 -1.0109722780364745e-02 
2.1321141527095494e-01 0.0000000000000000e+00 -1.5386778315894054e-02 
2.1321141527060450e-01 0.0000000000000000e+00 -1.5386778315568169e-02 
2.3687327564646854e-01 0.0000000000000000e+00 -2.1019251918355270e-02 
2.3687327564639674e-01 0.0000000000000000e+00 -2.1019251918205060e-02 
2.6054108760607697e-01 0.0000000000000000e+00 -2.6845423069634968e-02 
2.6054108760617828e-01 0.0000000000000000e+00 -2.6845423069706685e-02 
2.8414627128022452e-01 0.0000000000000000e+00 -3.2736819365758882e-02 
2.8414627128031283e-01 0.0000000000000000e+00 -3.2736819365990696e-02 
3.0770150502392707e-01 0.0000000000000000e+00 -3.8630723337866185e-02 
3.0770150502382343e-01 0.0000000000000000e+00 -3.8630723338112134e-02 
3.3123507686349740e-01 0.0000000000000000e+00 -4.4512655460011742e-02 
3.3123507686319148e-01 0.0000000000000000e+00 -4.4512655460171809e-02 
3.5477107575852590e-01 0.0000000000000000e+00 -5.0392876683073309e-02 
3.5477107575811206e-01 0.0000000000000000e+00 -5.0392876683165437e-02 

