# vtk DataFile Version 2.0

ASCII

DATASET UNSTRUCTURED_GRID

POINTS 86 double 

5.0000000000000003e-02  0.0000000000000000e+00  0.0000000000000000e+00
5.0000000000000003e-02  0.0000000000000000e+00  5.0000000000000003e-02
5.0000000000000003e-02  2.9999999999999999e-01  0.0000000000000000e+00
5.0000000000000003e-02  2.9999999999999999e-01  5.0000000000000003e-02
5.0000000000000003e-02  0.0000000000000000e+00  1.0000000000000001e-01
5.0000000000000003e-02  2.9999999999999999e-01  1.0000000000000001e-01
5.0000000000000003e-02  0.0000000000000000e+00  1.4999999999999999e-01
5.0000000000000003e-02  2.9999999999999999e-01  1.4999999999999999e-01
5.0000000000000003e-02  0.0000000000000000e+00  2.0000000000000001e-01
5.0000000000000003e-02  2.9999999999999999e-01  2.0000000000000001e-01
5.0000000000000003e-02  0.0000000000000000e+00  2.5000000000000000e-01
5.0000000000000003e-02  2.9999999999999999e-01  2.5000000000000000e-01
5.0000000000000003e-02  0.0000000000000000e+00  2.9999999999999999e-01
5.0000000000000003e-02  2.9999999999999999e-01  2.9999999999999999e-01
5.0000000000000003e-02  0.0000000000000000e+00  3.4999999999999998e-01
5.0000000000000003e-02  2.9999999999999999e-01  3.4999999999999998e-01
5.0000000000000003e-02  0.0000000000000000e+00  4.0000000000000002e-01
5.0000000000000003e-02  2.9999999999999999e-01  4.0000000000000002e-01
5.0000000000000003e-02  0.0000000000000000e+00  4.5000000000000001e-01
5.0000000000000003e-02  2.9999999999999999e-01  4.5000000000000001e-01
5.0000000000000003e-02  0.0000000000000000e+00  5.0000000000000000e-01
5.0000000000000003e-02  2.9999999999999999e-01  5.0000000000000000e-01
5.0000000000000003e-02  0.0000000000000000e+00  5.5000000000000004e-01
5.0000000000000003e-02  2.9999999999999999e-01  5.5000000000000004e-01
5.0000000000000003e-02  0.0000000000000000e+00  5.9999999999999998e-01
5.0000000000000003e-02  2.9999999999999999e-01  5.9999999999999998e-01
5.0000000000000003e-02  0.0000000000000000e+00  6.5000000000000002e-01
5.0000000000000003e-02  2.9999999999999999e-01  6.5000000000000002e-01
5.0000000000000003e-02  0.0000000000000000e+00  6.9999999999999996e-01
5.0000000000000003e-02  2.9999999999999999e-01  6.9999999999999996e-01
5.0000000000000003e-02  0.0000000000000000e+00  7.5000000000000000e-01
5.0000000000000003e-02  2.9999999999999999e-01  7.5000000000000000e-01
5.0000000000000003e-02  0.0000000000000000e+00  8.0000000000000004e-01
5.0000000000000003e-02  2.9999999999999999e-01  8.0000000000000004e-01
5.0000000000000003e-02  0.0000000000000000e+00  8.4999999999999998e-01
5.0000000000000003e-02  2.9999999999999999e-01  8.4999999999999998e-01
5.0000000000000003e-02  0.0000000000000000e+00  9.0000000000000002e-01
5.0000000000000003e-02  2.9999999999999999e-01  9.0000000000000002e-01
5.0000000000000003e-02  0.0000000000000000e+00  9.4999999999999996e-01
5.0000000000000003e-02  2.9999999999999999e-01  9.4999999999999996e-01
0.0000000000000000e+00  0.0000000000000000e+00  1.0000000000000000e+00
5.0000000000000003e-02  0.0000000000000000e+00  1.0000000000000000e+00
0.0000000000000000e+00  2.9999999999999999e-01  1.0000000000000000e+00
5.0000000000000003e-02  2.9999999999999999e-01  1.0000000000000000e+00
-5.0000000000000003e-02  0.0000000000000000e+00  0.0000000000000000e+00
-5.0000000000000003e-02  0.0000000000000000e+00  5.0000000000000003e-02
-5.0000000000000003e-02  2.9999999999999999e-01  0.0000000000000000e+00
-5.0000000000000003e-02  2.9999999999999999e-01  5.0000000000000003e-02
-5.0000000000000003e-02  0.0000000000000000e+00  1.0000000000000001e-01
-5.0000000000000003e-02  2.9999999999999999e-01  1.0000000000000001e-01
-5.0000000000000003e-02  0.0000000000000000e+00  1.4999999999999999e-01
-5.0000000000000003e-02  2.9999999999999999e-01  1.4999999999999999e-01
-5.0000000000000003e-02  0.0000000000000000e+00  2.0000000000000001e-01
-5.0000000000000003e-02  2.9999999999999999e-01  2.0000000000000001e-01
-5.0000000000000003e-02  0.0000000000000000e+00  2.5000000000000000e-01
-5.0000000000000003e-02  2.9999999999999999e-01  2.5000000000000000e-01
-5.0000000000000003e-02  0.0000000000000000e+00  2.9999999999999999e-01
-5.0000000000000003e-02  2.9999999999999999e-01  2.9999999999999999e-01
-5.0000000000000003e-02  0.0000000000000000e+00  3.4999999999999998e-01
-5.0000000000000003e-02  2.9999999999999999e-01  3.4999999999999998e-01
-5.0000000000000003e-02  0.0000000000000000e+00  4.0000000000000002e-01
-5.0000000000000003e-02  2.9999999999999999e-01  4.0000000000000002e-01
-5.0000000000000003e-02  0.0000000000000000e+00  4.5000000000000001e-01
-5.0000000000000003e-02  2.9999999999999999e-01  4.5000000000000001e-01
-5.0000000000000003e-02  0.0000000000000000e+00  5.0000000000000000e-01
-5.0000000000000003e-02  2.9999999999999999e-01  5.0000000000000000e-01
-5.0000000000000003e-02  0.0000000000000000e+00  5.5000000000000004e-01
-5.0000000000000003e-02  2.9999999999999999e-01  5.5000000000000004e-01
-5.0000000000000003e-02  0.0000000000000000e+00  5.9999999999999998e-01
-5.0000000000000003e-02  2.9999999999999999e-01  5.9999999999999998e-01
-5.0000000000000003e-02  0.0000000000000000e+00  6.5000000000000002e-01
-5.0000000000000003e-02  2.9999999999999999e-01  6.5000000000000002e-01
-5.0000000000000003e-02  0.0000000000000000e+00  6.9999999999999996e-01
-5.0000000000000003e-02  2.9999999999999999e-01  6.9999999999999996e-01
-5.0000000000000003e-02  0.0000000000000000e+00  7.5000000000000000e-01
-5.0000000000000003e-02  2.9999999999999999e-01  7.5000000000000000e-01
-5.0000000000000003e-02  0.0000000000000000e+00  8.0000000000000004e-01
-5.0000000000000003e-02  2.9999999999999999e-01  8.0000000000000004e-01
-5.0000000000000003e-02  0.0000000000000000e+00  8.4999999999999998e-01
-5.0000000000000003e-02  2.9999999999999999e-01  8.4999999999999998e-01
-5.0000000000000003e-02  0.0000000000000000e+00  9.0000000000000002e-01
-5.0000000000000003e-02  2.9999999999999999e-01  9.0000000000000002e-01
-5.0000000000000003e-02  0.0000000000000000e+00  9.4999999999999996e-01
-5.0000000000000003e-02  2.9999999999999999e-01  9.4999999999999996e-01
-5.0000000000000003e-02  0.0000000000000000e+00  1.0000000000000000e+00
-5.0000000000000003e-02  2.9999999999999999e-01  1.0000000000000000e+00

CELLS 0 0


CELL_TYPES 0


POINT_DATA 86

VECTORS VertexNormals double

0.0000000000000000e+00 0.0000000000000000e+00 0.0000000000000000e+00 
0.0000000000000000e+00 0.0000000000000000e+00 0.0000000000000000e+00 
0.0000000000000000e+00 0.0000000000000000e+00 0.0000000000000000e+00 
0.0000000000000000e+00 0.0000000000000000e+00 0.0000000000000000e+00 
0.0000000000000000e+00 0.0000000000000000e+00 0.0000000000000000e+00 
0.0000000000000000e+00 0.0000000000000000e+00 0.0000000000000000e+00 
0.0000000000000000e+00 0.0000000000000000e+00 0.0000000000000000e+00 
0.0000000000000000e+00 0.0000000000000000e+00 0.0000000000000000e+00 
0.0000000000000000e+00 0.0000000000000000e+00 0.0000000000000000e+00 
0.0000000000000000e+00 0.0000000000000000e+00 0.0000000000000000e+00 
0.0000000000000000e+00 0.0000000000000000e+00 0.0000000000000000e+00 
0.0000000000000000e+00 0.0000000000000000e+00 0.0000000000000000e+00 
0.0000000000000000e+00 0.0000000000000000e+00 0.0000000000000000e+00 
0.0000000000000000e+00 0.0000000000000000e+00 0.0000000000000000e+00 
0.0000000000000000e+00 0.0000000000000000e+00 0.0000000000000000e+00 
0.0000000000000000e+00 0.0000000000000000e+00 0.0000000000000000e+00 
0.0000000000000000e+00 0.0000000000000000e+00 0.0000000000000000e+00 
0.0000000000000000e+00 0.0000000000000000e+00 0.0000000000000000e+00 
0.0000000000000000e+00 0.0000000000000000e+00 0.0000000000000000e+00 
0.0000000000000000e+00 0.0000000000000000e+00 0.0000000000000000e+00 
0.0000000000000000e+00 0.0000000000000000e+00 0.0000000000000000e+00 
0.0000000000000000e+00 0.0000000000000000e+00 0.0000000000000000e+00 
0.0000000000000000e+00 0.0000000000000000e+00 0.0000000000000000e+00 
0.0000000000000000e+00 0.0000000000000000e+00 0.0000000000000000e+00 
0.0000000000000000e+00 0.0000000000000000e+00 0.0000000000000000e+00 
0.0000000000000000e+00 0.0000000000000000e+00 0.0000000000000000e+00 
0.0000000000000000e+00 0.0000000000000000e+00 0.0000000000000000e+00 
0.0000000000000000e+00 0.0000000000000000e+00 0.0000000000000000e+00 
0.0000000000000000e+00 0.0000000000000000e+00 0.0000000000000000e+00 
0.0000000000000000e+00 0.0000000000000000e+00 0.0000000000000000e+00 
0.0000000000000000e+00 0.0000000000000000e+00 0.0000000000000000e+00 
0.0000000000000000e+00 0.0000000000000000e+00 0.0000000000000000e+00 
0.0000000000000000e+00 0.0000000000000000e+00 0.0000000000000000e+00 
0.0000000000000000e+00 0.0000000000000000e+00 0.0000000000000000e+00 
0.0000000000000000e+00 0.0000000000000000e+00 0.0000000000000000e+00 
0.0000000000000000e+00 0.0000000000000000e+00 0.0000000000000000e+00 
0.0000000000000000e+00 0.0000000000000000e+00 0.0000000000000000e+00 
0.0000000000000000e+00 0.0000000000000000e+00 0.0000000000000000e+00 
0.0000000000000000e+00 0.0000000000000000e+00 0.0000000000000000e+00 
0.0000000000000000e+00 0.0000000000000000e+00 0.0000000000000000e+00 
0.0000000000000000e+00 0.0000000000000000e+00 0.0000000000000000e+00 
0.0000000000000000e+00 0.0000000000000000e+00 0.0000000000000000e+00 
0.0000000000000000e+00 0.0000000000000000e+00 0.0000000000000000e+00 
0.0000000000000000e+00 0.0000000000000000e+00 0.0000000000000000e+00 
0.0000000000000000e+00 0.0000000000000000e+00 0.0000000000000000e+00 
0.0000000000000000e+00 0.0000000000000000e+00 0.0000000000000000e+00 
0.0000000000000000e+00 0.0000000000000000e+00 0.0000000000000000e+00 
0.0000000000000000e+00 0.0000000000000000e+00 0.0000000000000000e+00 
0.0000000000000000e+00 0.0000000000000000e+00 0.0000000000000000e+00 
0.0000000000000000e+00 0.0000000000000000e+00 0.0000000000000000e+00 
0.0000000000000000e+00 0.0000000000000000e+00 0.0000000000000000e+00 
0.0000000000000000e+00 0.0000000000000000e+00 0.0000000000000000e+00 
0.0000000000000000e+00 0.0000000000000000e+00 0.0000000000000000e+00 
0.0000000000000000e+00 0.0000000000000000e+00 0.0000000000000000e+00 
0.0000000000000000e+00 0.0000000000000000e+00 0.0000000000000000e+00 
0.0000000000000000e+00 0.0000000000000000e+00 0.0000000000000000e+00 
0.0000000000000000e+00 0.0000000000000000e+00 0.0000000000000000e+00 
0.0000000000000000e+00 0.0000000000000000e+00 0.0000000000000000e+00 
0.0000000000000000e+00 0.0000000000000000e+00 0.0000000000000000e+00 
0.0000000000000000e+00 0.0000000000000000e+00 0.0000000000000000e+00 
0.0000000000000000e+00 0.0000000000000000e+00 0.0000000000000000e+00 
0.0000000000000000e+00 0.0000000000000000e+00 0.0000000000000000e+00 
0.0000000000000000e+00 0.0000000000000000e+00 0.0000000000000000e+00 
0.0000000000000000e+00 0.0000000000000000e+00 0.0000000000000000e+00 
0.0000000000000000e+00 0.0000000000000000e+00 0.0000000000000000e+00 
0.0000000000000000e+00 0.0000000000000000e+00 0.0000000000000000e+00 
0.0000000000000000e+00 0.0000000000000000e+00 0.0000000000000000e+00 
0.0000000000000000e+00 0.0000000000000000e+00 0.0000000000000000e+00 
0.0000000000000000e+00 0.0000000000000000e+00 0.0000000000000000e+00 
0.0000000000000000e+00 0.0000000000000000e+00 0.0000000000000000e+00 
0.0000000000000000e+00 0.0000000000000000e+00 0.0000000000000000e+00 
0.0000000000000000e+00 0.0000000000000000e+00 0.0000000000000000e+00 
0.0000000000000000e+00 0.0000000000000000e+00 0.0000000000000000e+00 
0.0000000000000000e+00 0.0000000000000000e+00 0.0000000000000000e+00 
0.0000000000000000e+00 0.0000000000000000e+00 0.0000000000000000e+00 
0.0000000000000000e+00 0.0000000000000000e+00 0.0000000000000000e+00 
0.0000000000000000e+00 0.0000000000000000e+00 0.0000000000000000e+00 
0.0000000000000000e+00 0.0000000000000000e+00 0.0000000000000000e+00 
0.0000000000000000e+00 0.0000000000000000e+00 0.0000000000000000e+00 
0.0000000000000000e+00 0.0000000000000000e+00 0.0000000000000000e+00 
0.0000000000000000e+00 0.0000000000000000e+00 0.0000000000000000e+00 
0.0000000000000000e+00 0.0000000000000000e+00 0.0000000000000000e+00 
0.0000000000000000e+00 0.0000000000000000e+00 0.0000000000000000e+00 
0.0000000000000000e+00 0.0000000000000000e+00 0.0000000000000000e+00 
0.0000000000000000e+00 0.0000000000000000e+00 0.0000000000000000e+00 
0.0000000000000000e+00 0.0000000000000000e+00 0.0000000000000000e+00 

VECTORS Forces0 double
2.3472225830968213e-01 0.0000000000000000e+00 1.2240437345709910e-02 
7.6009829359895020e-01 0.0000000000000000e+00 -2.4023692917616933e-02 
2.3472225830951990e-01 0.0000000000000000e+00 1.2240437270133320e-02 
7.6009829324778566e-01 0.0000000000000000e+00 -2.4023693019281377e-02 
7.4278527042632192e-01 0.0000000000000000e+00 -1.5382446313215248e-02 
7.4278527007641704e-01 0.0000000000000000e+00 -1.5382446261080264e-02 
6.7905942175948386e-01 0.0000000000000000e+00 -1.3460896252946383e-02 
6.7905942123151319e-01 0.0000000000000000e+00 -1.3460896454994009e-02 
6.9625742704494864e-01 0.0000000000000000e+00 -8.5936915975819966e-03 
6.9625742563964310e-01 0.0000000000000000e+00 -8.5936915467406082e-03 
6.9801729528806855e-01 0.0000000000000000e+00 -3.5933759234431260e-03 
6.9801729511219068e-01 0.0000000000000000e+00 -3.5933757710233960e-03 
8.1459012195432479e-01 0.0000000000000000e+00 1.5812210609325926e-03 
8.1459012265728137e-01 0.0000000000000000e+00 1.5812210135284972e-03 
7.3955281947116935e-01 0.0000000000000000e+00 1.9469516671392826e-03 
7.3955281876869594e-01 0.0000000000000000e+00 1.9469516153720469e-03 
7.7159842255368449e-01 0.0000000000000000e+00 1.9936893440456026e-03 
7.7159842220206853e-01 0.0000000000000000e+00 1.9936894191297286e-03 
7.8753287959719542e-01 0.0000000000000000e+00 1.8335499936042324e-03 
7.8753287889388157e-01 0.0000000000000000e+00 1.8335499685210145e-03 
9.5187107976225471e-01 0.0000000000000000e+00 2.2143495316219409e-03 
9.5187108046641389e-01 0.0000000000000000e+00 2.2143493544964730e-03 
8.9592176359118403e-01 0.0000000000000000e+00 2.5048330331332120e-03 
8.9592176411942737e-01 0.0000000000000000e+00 2.5048331350138323e-03 
9.5881587563949400e-01 0.0000000000000000e+00 2.8786513748183689e-03 
9.5881587581575600e-01 0.0000000000000000e+00 2.8786513991595967e-03 
1.0100390777138677e+00 0.0000000000000000e+00 3.3252880651896202e-03 
1.0100390775392254e+00 0.0000000000000000e+00 3.3252880647564307e-03 
1.2824180540467720e+00 0.0000000000000000e+00 4.3199233587699762e-03 
1.2824180538707286e+00 0.0000000000000000e+00 4.3199231813860683e-03 
1.2481189464401363e+00 0.0000000000000000e+00 4.6793397693428735e-03 
1.2481189467921094e+00 0.0000000000000000e+00 4.6793396162873365e-03 
1.3328362742677380e+00 0.0000000000000000e+00 5.2880193368820515e-03 
1.3328362747950935e+00 0.0000000000000000e+00 5.2880193616267829e-03 
1.4085251967687678e+00 0.0000000000000000e+00 7.4575583039460857e-03 
1.4085251965928796e+00 0.0000000000000000e+00 7.4575583036293035e-03 
1.6768325867963920e+00 0.0000000000000000e+00 1.0590613589279135e-03 
1.6768325874993228e+00 0.0000000000000000e+00 1.0590613837869101e-03 
1.6055997641543751e+00 0.0000000000000000e+00 3.6557437850991630e-02 
1.6055997636272101e+00 0.0000000000000000e+00 3.6557437876689157e-02 
2.6322802096162563e-02 0.0000000000000000e+00 2.7469010062234016e+00 
5.5643994222194992e-01 0.0000000000000000e+00 6.8105400630262636e-01 
2.6322802623187952e-02 0.0000000000000000e+00 2.7469010062482848e+00 
5.5643994204656255e-01 0.0000000000000000e+00 6.8105400625276313e-01 
3.3582764487142647e-01 0.0000000000000000e+00 1.2787920612490421e-02 
1.0258349436419245e+00 0.0000000000000000e+00 -2.8854028730410434e-02 
3.3582764416869332e-01 0.0000000000000000e+00 1.2787920562205801e-02 
1.0258349431145275e+00 0.0000000000000000e+00 -2.8854028780469273e-02 
1.0064779018022467e+00 0.0000000000000000e+00 -2.0988873427575057e-02 
1.0064779016265488e+00 0.0000000000000000e+00 -2.0988873352024404e-02 
8.8583550615395246e-01 0.0000000000000000e+00 -1.7434871028513078e-02 
8.8583550597848448e-01 0.0000000000000000e+00 -1.7434871129274301e-02 
8.8435674514823159e-01 0.0000000000000000e+00 -1.1126625297515543e-02 
8.8435674462169633e-01 0.0000000000000000e+00 -1.1126625272432583e-02 
8.7351960113088767e-01 0.0000000000000000e+00 -4.7366560176540619e-03 
8.7351960060339695e-01 0.0000000000000000e+00 -4.7366559175346734e-03 
9.9336890255841026e-01 0.0000000000000000e+00 1.7469885347619579e-03 
9.9336890203130135e-01 0.0000000000000000e+00 1.7469886097003754e-03 
8.6000498716644147e-01 0.0000000000000000e+00 2.0007090795303344e-03 
8.6000498681501181e-01 0.0000000000000000e+00 2.0007090553218433e-03 
8.5912971505623770e-01 0.0000000000000000e+00 1.8597573270177793e-03 
8.5912971540755856e-01 0.0000000000000000e+00 1.8597573517054283e-03 
8.4294912175955417e-01 0.0000000000000000e+00 1.4860330468265607e-03 
8.4294912175952330e-01 0.0000000000000000e+00 1.4860331226440413e-03 
9.4136940036203798e-01 0.0000000000000000e+00 1.7547466479753749e-03 
9.4136940053778106e-01 0.0000000000000000e+00 1.7547465469136114e-03 
8.0164296709912686e-01 0.0000000000000000e+00 1.7579675519076394e-03 
8.0164296709901794e-01 0.0000000000000000e+00 1.7579676271875806e-03 
7.9160992770920158e-01 0.0000000000000000e+00 1.8706062537225095e-03 
7.9160992806046060e-01 0.0000000000000000e+00 1.8706063301794375e-03 
7.6071522569485595e-01 0.0000000000000000e+00 2.0255987007134551e-03 
7.6071522604610209e-01 0.0000000000000000e+00 2.0255987507687145e-03 
8.1510609958078717e-01 0.0000000000000000e+00 2.4507577770232821e-03 
8.1510609922977806e-01 0.0000000000000000e+00 2.4507577518930101e-03 
6.6178122625722480e-01 0.0000000000000000e+00 2.5093382329047891e-03 
6.6178122608128243e-01 0.0000000000000000e+00 2.5093381824189799e-03 
6.1921683756287937e-01 0.0000000000000000e+00 2.2120438246666803e-03 
6.1921683738714406e-01 0.0000000000000000e+00 2.2120438246764126e-03 
5.3858078592791014e-01 0.0000000000000000e+00 3.8558049570640396e-03 
5.3858078592787073e-01 0.0000000000000000e+00 3.8558050074435010e-03 
4.4452435693595693e-01 0.0000000000000000e+00 -1.1517937169609010e-02 
4.4452435693605402e-01 0.0000000000000000e+00 -1.1517937169734762e-02 
9.2748367870782666e-02 0.0000000000000000e+00 3.9194485835070687e-02 
9.2748368046505644e-02 0.0000000000000000e+00 3.9194485860395895e-02 
-3.5887058862608338e-02 0.0000000000000000e+00 1.0084718174494298e+00 
-3.5887059038328312e-02 0.0000000000000000e+00 1.0084718174748026e+00 

VECTORS Displacements0 double
6.9356603532943773e-310 0.0000000000000000e+00 0.0000000000000000e+00 
6.5551372011119543e-04 0.0000000000000000e+00 -5.4371650530565569e-04 
0.0000000000000000e+00 0.0000000000000000e+00 0.0000000000000000e+00 
6.5551371967880118e-04 0.0000000000000000e+00 -5.4371650499547553e-04 
1.5789182089991011e-03 0.0000000000000000e+00 -8.6954555564297726e-04 
1.5789182080655009e-03 0.0000000000000000e+00 -8.6954555531002290e-04 
2.6976795608493510e-03 0.0000000000000000e+00 -9.6560409571697537e-04 
2.6976795595821191e-03 0.0000000000000000e+00 -9.6560409567572321e-04 
3.8194011870468568e-03 0.0000000000000000e+00 -8.4623320073547289e-04 
3.8194011858856455e-03 0.0000000000000000e+00 -8.4623320108277180e-04 
4.6414996316443873e-03 0.0000000000000000e+00 -5.3125255172605413e-04 
4.6414996312733291e-03 0.0000000000000000e+00 -5.3125255215701365e-04 
4.9502838971160184e-03 0.0000000000000000e+00 -1.6962237981823732e-04 
4.9502838972227048e-03 0.0000000000000000e+00 -1.6962238000667104e-04 
4.8651410647836115e-03 0.0000000000000000e+00 7.5011772552418092e-05 
4.8651410649401304e-03 0.0000000000000000e+00 7.5011772520963151e-05 
4.6570461311554699e-03 0.0000000000000000e+00 1.6699938010531607e-04 
4.6570461313558227e-03 0.0000000000000000e+00 1.6699938016154385e-04 
4.5007955206268456e-03 0.0000000000000000e+00 1.7874498721260831e-04 
4.5007955206859728e-03 0.0000000000000000e+00 1.7874498739576009e-04 
4.4026106447309843e-03 0.0000000000000000e+00 1.8415850704969812e-04 
4.4026106444817080e-03 0.0000000000000000e+00 1.8415850723259975e-04 
4.3201281853942177e-03 0.0000000000000000e+00 2.0301943485562832e-04 
4.3201281848727208e-03 0.0000000000000000e+00 2.0301943494027491e-04 
4.2525415370405478e-03 0.0000000000000000e+00 2.3016723446760265e-04 
4.2525415364340485e-03 0.0000000000000000e+00 2.3016723442692308e-04 
4.2134987457771644e-03 0.0000000000000000e+00 2.7156979772411017e-04 
4.2134987453192252e-03 0.0000000000000000e+00 2.7156979756019209e-04 
4.1774226742758679e-03 0.0000000000000000e+00 3.3421006428724885e-04 
4.1774226740559266e-03 0.0000000000000000e+00 3.3421006409640780e-04 
4.1114139242321079e-03 0.0000000000000000e+00 4.0546710149614332e-04 
4.1114139242617465e-03 0.0000000000000000e+00 4.0546710133926062e-04 
4.0230433452759272e-03 0.0000000000000000e+00 4.6724949932139259e-04 
4.0230433454930522e-03 0.0000000000000000e+00 4.6724949926476493e-04 
3.9302701452446111e-03 0.0000000000000000e+00 5.1693298999347837e-04 
3.9302701453924616e-03 0.0000000000000000e+00 5.1693299003799170e-04 
3.8218250497038305e-03 0.0000000000000000e+00 5.6079484275130612e-04 
3.8218250497569243e-03 0.0000000000000000e+00 5.6079484286210887e-04 
3.6981894860004718e-03 0.0000000000000000e+00 5.9474187208642031e-04 
3.6981894859011485e-03 0.0000000000000000e+00 5.9474187222001678e-04 
3.5811583114946427e-03 0.0000000000000000e+00 5.2202778406466161e-04 
3.5905297193276615e-03 0.0000000000000000e+00 6.0737710243835834e-04 
3.5811583112010104e-03 0.0000000000000000e+00 5.2202778409899992e-04 
3.5905297190967421e-03 0.0000000000000000e+00 6.0737710254465547e-04 
0.0000000000000000e+00 0.0000000000000000e+00 0.0000000000000000e+00 
6.4998123511112327e-04 0.0000000000000000e+00 5.4128123662138482e-04 
0.0000000000000000e+00 0.0000000000000000e+00 0.0000000000000000e+00 
6.4998123479424080e-04 0.0000000000000000e+00 5.4128123628238343e-04 
1.5769303147117977e-03 0.0000000000000000e+00 8.6430684809804699e-04 
1.5769303138243988e-03 0.0000000000000000e+00 8.6430684774755956e-04 
2.7063200938977996e-03 0.0000000000000000e+00 9.5635812064705597e-04 
2.7063200925059477e-03 0.0000000000000000e+00 9.5635812059042754e-04 
3.8267692529717419e-03 0.0000000000000000e+00 8.3693655303338974e-04 
3.8267692517763817e-03 0.0000000000000000e+00 8.3693655338357641e-04 
4.6385934363749578e-03 0.0000000000000000e+00 5.3253077750616570e-04 
4.6385934360705554e-03 0.0000000000000000e+00 5.3253077796077124e-04 
4.9404259771146019e-03 0.0000000000000000e+00 1.9275185715401561e-04 
4.9404259771773477e-03 0.0000000000000000e+00 1.9275185738175073e-04 
4.8576287479529202e-03 0.0000000000000000e+00 -2.2163797365643186e-05 
4.8576287480429940e-03 0.0000000000000000e+00 -2.2163797277610205e-05 
4.6558208154571078e-03 0.0000000000000000e+00 -7.6674323152151771e-05 
4.6558208156701579e-03 0.0000000000000000e+00 -7.6674323129633949e-05 
4.5008019291300520e-03 0.0000000000000000e+00 -4.1672001038666322e-05 
4.5008019292093696e-03 0.0000000000000000e+00 -4.1672001163068926e-05 
4.4049339954292614e-03 0.0000000000000000e+00 1.0691939177339976e-05 
4.4049339951547726e-03 0.0000000000000000e+00 1.0691938991674993e-05 
4.3300165699041186e-03 0.0000000000000000e+00 6.3078429040551657e-05 
4.3300165694703050e-03 0.0000000000000000e+00 6.3078428909500359e-05 
4.2710433317013291e-03 0.0000000000000000e+00 1.2204724912883566e-04 
4.2710433311786483e-03 0.0000000000000000e+00 1.2204724909186753e-04 
4.2336408297023531e-03 0.0000000000000000e+00 1.7943250419495444e-04 
4.2336408292856812e-03 0.0000000000000000e+00 1.7943250427578252e-04 
4.1950589894333536e-03 0.0000000000000000e+00 2.2258311350876605e-04 
4.1950589892334579e-03 0.0000000000000000e+00 2.2258311364782682e-04 
4.1279564934035102e-03 0.0000000000000000e+00 2.5612326605392349e-04 
4.1279564934395465e-03 0.0000000000000000e+00 2.5612326620093123e-04 
4.0339270807167810e-03 0.0000000000000000e+00 2.8932314754974257e-04 
4.0339270808826605e-03 0.0000000000000000e+00 2.8932314763219588e-04 
3.9294214532746962e-03 0.0000000000000000e+00 3.2061894530059935e-04 
3.9294214534567745e-03 0.0000000000000000e+00 3.2061894528643745e-04 
3.8169964418927225e-03 0.0000000000000000e+00 3.4845730039363438e-04 
3.8169964419740615e-03 0.0000000000000000e+00 3.4845730031379292e-04 
3.6975797701056887e-03 0.0000000000000000e+00 3.7942678190339645e-04 
3.6975797699893417e-03 0.0000000000000000e+00 3.7942678176265752e-04 
3.5821583883193960e-03 0.0000000000000000e+00 4.0197031479236148e-04 
3.5821583878447136e-03 0.0000000000000000e+00 4.0197031456077497e-04 

