# vtk DataFile Version 2.0

ASCII

DATASET UNSTRUCTURED_GRID

POINTS 86 float 

5.0000000000000003e-02  0.0000000000000000e+00  0.0000000000000000e+00
5.0000000000000003e-02  0.0000000000000000e+00  5.0000000000000003e-02
5.0000000000000003e-02  2.9999999999999999e-01  0.0000000000000000e+00
5.0000000000000003e-02  2.9999999999999999e-01  5.0000000000000003e-02
5.0000000000000003e-02  0.0000000000000000e+00  1.0000000000000001e-01
5.0000000000000003e-02  2.9999999999999999e-01  1.0000000000000001e-01
5.0000000000000003e-02  0.0000000000000000e+00  1.4999999999999999e-01
5.0000000000000003e-02  2.9999999999999999e-01  1.4999999999999999e-01
5.0000000000000003e-02  0.0000000000000000e+00  2.0000000000000001e-01
5.0000000000000003e-02  2.9999999999999999e-01  2.0000000000000001e-01
5.0000000000000003e-02  0.0000000000000000e+00  2.5000000000000000e-01
5.0000000000000003e-02  2.9999999999999999e-01  2.5000000000000000e-01
5.0000000000000003e-02  0.0000000000000000e+00  2.9999999999999999e-01
5.0000000000000003e-02  2.9999999999999999e-01  2.9999999999999999e-01
5.0000000000000003e-02  0.0000000000000000e+00  3.4999999999999998e-01
5.0000000000000003e-02  2.9999999999999999e-01  3.4999999999999998e-01
5.0000000000000003e-02  0.0000000000000000e+00  4.0000000000000002e-01
5.0000000000000003e-02  2.9999999999999999e-01  4.0000000000000002e-01
5.0000000000000003e-02  0.0000000000000000e+00  4.5000000000000001e-01
5.0000000000000003e-02  2.9999999999999999e-01  4.5000000000000001e-01
5.0000000000000003e-02  0.0000000000000000e+00  5.0000000000000000e-01
5.0000000000000003e-02  2.9999999999999999e-01  5.0000000000000000e-01
5.0000000000000003e-02  0.0000000000000000e+00  5.5000000000000004e-01
5.0000000000000003e-02  2.9999999999999999e-01  5.5000000000000004e-01
5.0000000000000003e-02  0.0000000000000000e+00  5.9999999999999998e-01
5.0000000000000003e-02  2.9999999999999999e-01  5.9999999999999998e-01
5.0000000000000003e-02  0.0000000000000000e+00  6.5000000000000002e-01
5.0000000000000003e-02  2.9999999999999999e-01  6.5000000000000002e-01
5.0000000000000003e-02  0.0000000000000000e+00  6.9999999999999996e-01
5.0000000000000003e-02  2.9999999999999999e-01  6.9999999999999996e-01
5.0000000000000003e-02  0.0000000000000000e+00  7.5000000000000000e-01
5.0000000000000003e-02  2.9999999999999999e-01  7.5000000000000000e-01
5.0000000000000003e-02  0.0000000000000000e+00  8.0000000000000004e-01
5.0000000000000003e-02  2.9999999999999999e-01  8.0000000000000004e-01
5.0000000000000003e-02  0.0000000000000000e+00  8.4999999999999998e-01
5.0000000000000003e-02  2.9999999999999999e-01  8.4999999999999998e-01
5.0000000000000003e-02  0.0000000000000000e+00  9.0000000000000002e-01
5.0000000000000003e-02  2.9999999999999999e-01  9.0000000000000002e-01
5.0000000000000003e-02  0.0000000000000000e+00  9.4999999999999996e-01
5.0000000000000003e-02  2.9999999999999999e-01  9.4999999999999996e-01
0.0000000000000000e+00  0.0000000000000000e+00  1.0000000000000000e+00
5.0000000000000003e-02  0.0000000000000000e+00  1.0000000000000000e+00
0.0000000000000000e+00  2.9999999999999999e-01  1.0000000000000000e+00
5.0000000000000003e-02  2.9999999999999999e-01  1.0000000000000000e+00
-5.0000000000000003e-02  0.0000000000000000e+00  0.0000000000000000e+00
-5.0000000000000003e-02  0.0000000000000000e+00  5.0000000000000003e-02
-5.0000000000000003e-02  2.9999999999999999e-01  0.0000000000000000e+00
-5.0000000000000003e-02  2.9999999999999999e-01  5.0000000000000003e-02
-5.0000000000000003e-02  0.0000000000000000e+00  1.0000000000000001e-01
-5.0000000000000003e-02  2.9999999999999999e-01  1.0000000000000001e-01
-5.0000000000000003e-02  0.0000000000000000e+00  1.4999999999999999e-01
-5.0000000000000003e-02  2.9999999999999999e-01  1.4999999999999999e-01
-5.0000000000000003e-02  0.0000000000000000e+00  2.0000000000000001e-01
-5.0000000000000003e-02  2.9999999999999999e-01  2.0000000000000001e-01
-5.0000000000000003e-02  0.0000000000000000e+00  2.5000000000000000e-01
-5.0000000000000003e-02  2.9999999999999999e-01  2.5000000000000000e-01
-5.0000000000000003e-02  0.0000000000000000e+00  2.9999999999999999e-01
-5.0000000000000003e-02  2.9999999999999999e-01  2.9999999999999999e-01
-5.0000000000000003e-02  0.0000000000000000e+00  3.4999999999999998e-01
-5.0000000000000003e-02  2.9999999999999999e-01  3.4999999999999998e-01
-5.0000000000000003e-02  0.0000000000000000e+00  4.0000000000000002e-01
-5.0000000000000003e-02  2.9999999999999999e-01  4.0000000000000002e-01
-5.0000000000000003e-02  0.0000000000000000e+00  4.5000000000000001e-01
-5.0000000000000003e-02  2.9999999999999999e-01  4.5000000000000001e-01
-5.0000000000000003e-02  0.0000000000000000e+00  5.0000000000000000e-01
-5.0000000000000003e-02  2.9999999999999999e-01  5.0000000000000000e-01
-5.0000000000000003e-02  0.0000000000000000e+00  5.5000000000000004e-01
-5.0000000000000003e-02  2.9999999999999999e-01  5.5000000000000004e-01
-5.0000000000000003e-02  0.0000000000000000e+00  5.9999999999999998e-01
-5.0000000000000003e-02  2.9999999999999999e-01  5.9999999999999998e-01
-5.0000000000000003e-02  0.0000000000000000e+00  6.5000000000000002e-01
-5.0000000000000003e-02  2.9999999999999999e-01  6.5000000000000002e-01
-5.0000000000000003e-02  0.0000000000000000e+00  6.9999999999999996e-01
-5.0000000000000003e-02  2.9999999999999999e-01  6.9999999999999996e-01
-5.0000000000000003e-02  0.0000000000000000e+00  7.5000000000000000e-01
-5.0000000000000003e-02  2.9999999999999999e-01  7.5000000000000000e-01
-5.0000000000000003e-02  0.0000000000000000e+00  8.0000000000000004e-01
-5.0000000000000003e-02  2.9999999999999999e-01  8.0000000000000004e-01
-5.0000000000000003e-02  0.0000000000000000e+00  8.4999999999999998e-01
-5.0000000000000003e-02  2.9999999999999999e-01  8.4999999999999998e-01
-5.0000000000000003e-02  0.0000000000000000e+00  9.0000000000000002e-01
-5.0000000000000003e-02  2.9999999999999999e-01  9.0000000000000002e-01
-5.0000000000000003e-02  0.0000000000000000e+00  9.4999999999999996e-01
-5.0000000000000003e-02  2.9999999999999999e-01  9.4999999999999996e-01
-5.0000000000000003e-02  0.0000000000000000e+00  1.0000000000000000e+00
-5.0000000000000003e-02  2.9999999999999999e-01  1.0000000000000000e+00

CELLS 0 0


CELL_TYPES 0


POINT_DATA 86

VECTORS VertexNormals float

0.0000000000000000e+00 0.0000000000000000e+00 0.0000000000000000e+00 
0.0000000000000000e+00 0.0000000000000000e+00 0.0000000000000000e+00 
0.0000000000000000e+00 0.0000000000000000e+00 0.0000000000000000e+00 
0.0000000000000000e+00 0.0000000000000000e+00 0.0000000000000000e+00 
0.0000000000000000e+00 0.0000000000000000e+00 0.0000000000000000e+00 
0.0000000000000000e+00 0.0000000000000000e+00 0.0000000000000000e+00 
0.0000000000000000e+00 0.0000000000000000e+00 0.0000000000000000e+00 
0.0000000000000000e+00 0.0000000000000000e+00 0.0000000000000000e+00 
0.0000000000000000e+00 0.0000000000000000e+00 0.0000000000000000e+00 
0.0000000000000000e+00 0.0000000000000000e+00 0.0000000000000000e+00 
0.0000000000000000e+00 0.0000000000000000e+00 0.0000000000000000e+00 
0.0000000000000000e+00 0.0000000000000000e+00 0.0000000000000000e+00 
0.0000000000000000e+00 0.0000000000000000e+00 0.0000000000000000e+00 
0.0000000000000000e+00 0.0000000000000000e+00 0.0000000000000000e+00 
0.0000000000000000e+00 0.0000000000000000e+00 0.0000000000000000e+00 
0.0000000000000000e+00 0.0000000000000000e+00 0.0000000000000000e+00 
0.0000000000000000e+00 0.0000000000000000e+00 0.0000000000000000e+00 
0.0000000000000000e+00 0.0000000000000000e+00 0.0000000000000000e+00 
0.0000000000000000e+00 0.0000000000000000e+00 0.0000000000000000e+00 
0.0000000000000000e+00 0.0000000000000000e+00 0.0000000000000000e+00 
0.0000000000000000e+00 0.0000000000000000e+00 0.0000000000000000e+00 
0.0000000000000000e+00 0.0000000000000000e+00 0.0000000000000000e+00 
0.0000000000000000e+00 0.0000000000000000e+00 0.0000000000000000e+00 
0.0000000000000000e+00 0.0000000000000000e+00 0.0000000000000000e+00 
0.0000000000000000e+00 0.0000000000000000e+00 0.0000000000000000e+00 
0.0000000000000000e+00 0.0000000000000000e+00 0.0000000000000000e+00 
0.0000000000000000e+00 0.0000000000000000e+00 0.0000000000000000e+00 
0.0000000000000000e+00 0.0000000000000000e+00 0.0000000000000000e+00 
0.0000000000000000e+00 0.0000000000000000e+00 0.0000000000000000e+00 
0.0000000000000000e+00 0.0000000000000000e+00 0.0000000000000000e+00 
0.0000000000000000e+00 0.0000000000000000e+00 0.0000000000000000e+00 
0.0000000000000000e+00 0.0000000000000000e+00 0.0000000000000000e+00 
0.0000000000000000e+00 0.0000000000000000e+00 0.0000000000000000e+00 
0.0000000000000000e+00 0.0000000000000000e+00 0.0000000000000000e+00 
0.0000000000000000e+00 0.0000000000000000e+00 0.0000000000000000e+00 
0.0000000000000000e+00 0.0000000000000000e+00 0.0000000000000000e+00 
0.0000000000000000e+00 0.0000000000000000e+00 0.0000000000000000e+00 
0.0000000000000000e+00 0.0000000000000000e+00 0.0000000000000000e+00 
0.0000000000000000e+00 0.0000000000000000e+00 0.0000000000000000e+00 
0.0000000000000000e+00 0.0000000000000000e+00 0.0000000000000000e+00 
0.0000000000000000e+00 0.0000000000000000e+00 0.0000000000000000e+00 
0.0000000000000000e+00 0.0000000000000000e+00 0.0000000000000000e+00 
0.0000000000000000e+00 0.0000000000000000e+00 0.0000000000000000e+00 
0.0000000000000000e+00 0.0000000000000000e+00 0.0000000000000000e+00 
0.0000000000000000e+00 0.0000000000000000e+00 0.0000000000000000e+00 
0.0000000000000000e+00 0.0000000000000000e+00 0.0000000000000000e+00 
0.0000000000000000e+00 0.0000000000000000e+00 0.0000000000000000e+00 
0.0000000000000000e+00 0.0000000000000000e+00 0.0000000000000000e+00 
0.0000000000000000e+00 0.0000000000000000e+00 0.0000000000000000e+00 
0.0000000000000000e+00 0.0000000000000000e+00 0.0000000000000000e+00 
0.0000000000000000e+00 0.0000000000000000e+00 0.0000000000000000e+00 
0.0000000000000000e+00 0.0000000000000000e+00 0.0000000000000000e+00 
0.0000000000000000e+00 0.0000000000000000e+00 0.0000000000000000e+00 
0.0000000000000000e+00 0.0000000000000000e+00 0.0000000000000000e+00 
0.0000000000000000e+00 0.0000000000000000e+00 0.0000000000000000e+00 
0.0000000000000000e+00 0.0000000000000000e+00 0.0000000000000000e+00 
0.0000000000000000e+00 0.0000000000000000e+00 0.0000000000000000e+00 
0.0000000000000000e+00 0.0000000000000000e+00 0.0000000000000000e+00 
0.0000000000000000e+00 0.0000000000000000e+00 0.0000000000000000e+00 
0.0000000000000000e+00 0.0000000000000000e+00 0.0000000000000000e+00 
0.0000000000000000e+00 0.0000000000000000e+00 0.0000000000000000e+00 
0.0000000000000000e+00 0.0000000000000000e+00 0.0000000000000000e+00 
0.0000000000000000e+00 0.0000000000000000e+00 0.0000000000000000e+00 
0.0000000000000000e+00 0.0000000000000000e+00 0.0000000000000000e+00 
0.0000000000000000e+00 0.0000000000000000e+00 0.0000000000000000e+00 
0.0000000000000000e+00 0.0000000000000000e+00 0.0000000000000000e+00 
0.0000000000000000e+00 0.0000000000000000e+00 0.0000000000000000e+00 
0.0000000000000000e+00 0.0000000000000000e+00 0.0000000000000000e+00 
0.0000000000000000e+00 0.0000000000000000e+00 0.0000000000000000e+00 
0.0000000000000000e+00 0.0000000000000000e+00 0.0000000000000000e+00 
0.0000000000000000e+00 0.0000000000000000e+00 0.0000000000000000e+00 
0.0000000000000000e+00 0.0000000000000000e+00 0.0000000000000000e+00 
0.0000000000000000e+00 0.0000000000000000e+00 0.0000000000000000e+00 
0.0000000000000000e+00 0.0000000000000000e+00 0.0000000000000000e+00 
0.0000000000000000e+00 0.0000000000000000e+00 0.0000000000000000e+00 
0.0000000000000000e+00 0.0000000000000000e+00 0.0000000000000000e+00 
0.0000000000000000e+00 0.0000000000000000e+00 0.0000000000000000e+00 
0.0000000000000000e+00 0.0000000000000000e+00 0.0000000000000000e+00 
0.0000000000000000e+00 0.0000000000000000e+00 0.0000000000000000e+00 
0.0000000000000000e+00 0.0000000000000000e+00 0.0000000000000000e+00 
0.0000000000000000e+00 0.0000000000000000e+00 0.0000000000000000e+00 
0.0000000000000000e+00 0.0000000000000000e+00 0.0000000000000000e+00 
0.0000000000000000e+00 0.0000000000000000e+00 0.0000000000000000e+00 
0.0000000000000000e+00 0.0000000000000000e+00 0.0000000000000000e+00 
0.0000000000000000e+00 0.0000000000000000e+00 0.0000000000000000e+00 
0.0000000000000000e+00 0.0000000000000000e+00 0.0000000000000000e+00 

VECTORS Forces0 float
1.4124659301687970e-01 0.0000000000000000e+00 -8.2949993659688233e-04 
5.0823373288903895e-01 0.0000000000000000e+00 -2.9152461937134683e-02 
1.4124659301715897e-01 0.0000000000000000e+00 -8.2949994986481076e-04 
5.0823373196084720e-01 0.0000000000000000e+00 -2.9152461932221520e-02 
4.7917463324065229e-01 0.0000000000000000e+00 -4.2760717174943265e-02 
4.7917463324098725e-01 0.0000000000000000e+00 -4.2760717189157471e-02 
4.3923813678139184e-01 0.0000000000000000e+00 -4.8760402254991196e-02 
4.3923813678102375e-01 0.0000000000000000e+00 -4.8760402251262713e-02 
4.5171152552304722e-01 0.0000000000000000e+00 -5.2719967698430924e-02 
4.5171152499347572e-01 0.0000000000000000e+00 -5.2719967708331032e-02 
4.4853732396476564e-01 0.0000000000000000e+00 -5.4167649552085688e-02 
4.4853732396427992e-01 0.0000000000000000e+00 -5.4167649560027807e-02 
5.1995655786312245e-01 0.0000000000000000e+00 -6.3166833515284473e-02 
5.1995655852553357e-01 0.0000000000000000e+00 -6.3166833524655450e-02 
4.7595499239497524e-01 0.0000000000000000e+00 -5.7232895980379429e-02 
4.7595499252757739e-01 0.0000000000000000e+00 -5.7232895992912376e-02 
4.9797046968645670e-01 0.0000000000000000e+00 -5.7672704990236745e-02 
4.9797046995065486e-01 0.0000000000000000e+00 -5.7672704988772069e-02 
5.0339309157408874e-01 0.0000000000000000e+00 -5.5861399414267120e-02 
5.0339309144158106e-01 0.0000000000000000e+00 -5.5861399428181753e-02 
5.9666211166377747e-01 0.0000000000000000e+00 -5.9424700218986319e-02 
5.9666211100219813e-01 0.0000000000000000e+00 -5.9424700211496005e-02 
5.4583442088335332e-01 0.0000000000000000e+00 -4.6932200666890564e-02 
5.4583442075136146e-01 0.0000000000000000e+00 -4.6932200666878622e-02 
5.6418366891242155e-01 0.0000000000000000e+00 -4.3382748954270633e-02 
5.6418366891263216e-01 0.0000000000000000e+00 -4.3382748960479854e-02 
5.6725115070055598e-01 0.0000000000000000e+00 -3.8689644417080137e-02 
5.6725115030298201e-01 0.0000000000000000e+00 -3.8689644426103613e-02 
6.5900497506237854e-01 0.0000000000000000e+00 -3.8579826272550702e-02 
6.5900497493019661e-01 0.0000000000000000e+00 -3.8579826278511441e-02 
5.8224666573101114e-01 0.0000000000000000e+00 -3.0234522907121277e-02 
5.8224666626058086e-01 0.0000000000000000e+00 -3.0234522910650912e-02 
5.8582367940617852e-01 0.0000000000000000e+00 -2.8570527972940293e-02 
5.8582367993584394e-01 0.0000000000000000e+00 -2.8570527981784333e-02 
5.7956142457468074e-01 0.0000000000000000e+00 -2.6017660845784978e-02 
5.7956142497168972e-01 0.0000000000000000e+00 -2.6017660847744817e-02 
6.4688872549625120e-01 0.0000000000000000e+00 -3.0647371866278923e-02 
6.4688872523083552e-01 0.0000000000000000e+00 -3.0647371874527516e-02 
6.2371636677158249e-01 0.0000000000000000e+00 -1.6612623249293489e-02 
6.2371636730107893e-01 0.0000000000000000e+00 -1.6612623256444387e-02 
5.6595450753932242e-02 0.0000000000000000e+00 1.0017143338001357e+00 
2.2924582796683982e-01 0.0000000000000000e+00 2.3802012795269786e-01 
5.6595451282943299e-02 0.0000000000000000e+00 1.0017143337984771e+00 
2.2924582730449519e-01 0.0000000000000000e+00 2.3802012796126093e-01 
3.1441845473562602e-01 0.0000000000000000e+00 -7.3198869674828901e-03 
9.5526317252502990e-01 0.0000000000000000e+00 -4.9207739010369581e-02 
3.1441845407323893e-01 0.0000000000000000e+00 -7.3198869622343489e-03 
9.5526317252451820e-01 0.0000000000000000e+00 -4.9207739011286000e-02 
9.3561753875358533e-01 0.0000000000000000e+00 -8.3271182234048086e-02 
9.3561753888565324e-01 0.0000000000000000e+00 -8.3271182237365945e-02 
8.1750903193110591e-01 0.0000000000000000e+00 -9.0777060093586034e-02 
8.1750903206347858e-01 0.0000000000000000e+00 -9.0777060086972450e-02 
8.1138794565556982e-01 0.0000000000000000e+00 -9.4978751321453780e-02 
8.1138794605308939e-01 0.0000000000000000e+00 -9.4978751327441949e-02 
8.0117080439865629e-01 0.0000000000000000e+00 -9.7312926178904038e-02 
8.0117080400157892e-01 0.0000000000000000e+00 -9.7312926179886836e-02 
9.0868857246158297e-01 0.0000000000000000e+00 -1.1122214843115993e-01 
9.0868857206475584e-01 0.0000000000000000e+00 -1.1122214843277389e-01 
7.7914503850078420e-01 0.0000000000000000e+00 -9.4527310354479838e-02 
7.7914503863360751e-01 0.0000000000000000e+00 -9.4527310351201307e-02 
7.7263115668961757e-01 0.0000000000000000e+00 -9.0518340014784107e-02 
7.7263115668941973e-01 0.0000000000000000e+00 -9.0518340013976406e-02 
7.5700676094909303e-01 0.0000000000000000e+00 -8.5060276058591164e-02 
7.5700676081661100e-01 0.0000000000000000e+00 -8.5060276066853277e-02 
8.4507656591254254e-01 0.0000000000000000e+00 -8.5204340602611381e-02 
8.4507656604518011e-01 0.0000000000000000e+00 -8.5204340605944687e-02 
7.1467709981220950e-01 0.0000000000000000e+00 -6.2300257733171265e-02 
7.1467709981188476e-01 0.0000000000000000e+00 -6.2300257737111855e-02 
7.0089757894713545e-01 0.0000000000000000e+00 -5.4906818741133359e-02 
7.0089757921183582e-01 0.0000000000000000e+00 -5.4906818739510824e-02 
6.7570756828500522e-01 0.0000000000000000e+00 -4.6847333343734129e-02 
6.7570756841747293e-01 0.0000000000000000e+00 -4.6847333343638949e-02 
7.3073655908464719e-01 0.0000000000000000e+00 -4.3263536869069703e-02 
7.3073655948194005e-01 0.0000000000000000e+00 -4.3263536871508204e-02 
5.9004982892996971e-01 0.0000000000000000e+00 -3.0907782743371727e-02 
5.9004982932729655e-01 0.0000000000000000e+00 -3.0907782745042967e-02 
5.4906004686181598e-01 0.0000000000000000e+00 -2.7055625828529804e-02 
5.4906004699422828e-01 0.0000000000000000e+00 -2.7055625830967017e-02 
4.9167571719330549e-01 0.0000000000000000e+00 -2.1923742735071711e-02 
4.9167571732571236e-01 0.0000000000000000e+00 -2.1923742735031532e-02 
4.4300069535651793e-01 0.0000000000000000e+00 -2.4327231233878234e-02 
4.4300069522421759e-01 0.0000000000000000e+00 -2.4327231232187885e-02 
2.0881037942756195e-01 0.0000000000000000e+00 6.6203139501648687e-03 
2.0881037942770767e-01 0.0000000000000000e+00 6.6203139501722240e-03 
7.4230240854042687e-02 0.0000000000000000e+00 3.8986403419870042e-01 
7.4230240853895582e-02 0.0000000000000000e+00 3.8986403419943300e-01 

VECTORS Displacements0 float
6.9356603532943773e-310 0.0000000000000000e+00 0.0000000000000000e+00 
1.9302297671465818e-03 0.0000000000000000e+00 -2.3129523719663671e-03 
0.0000000000000000e+00 0.0000000000000000e+00 0.0000000000000000e+00 
1.9302297669091045e-03 0.0000000000000000e+00 -2.3129523718169432e-03 
5.4076766027435653e-03 0.0000000000000000e+00 -4.2788868219962618e-03 
5.4076766024407849e-03 0.0000000000000000e+00 -4.2788868218320113e-03 
1.0418346921242412e-02 0.0000000000000000e+00 -5.7256407132239067e-03 
1.0418346920880176e-02 0.0000000000000000e+00 -5.7256407131083360e-03 
1.6248787138718360e-02 0.0000000000000000e+00 -6.7255708555204324e-03 
1.6248787138371548e-02 0.0000000000000000e+00 -6.7255708554571463e-03 
2.2423887233153826e-02 0.0000000000000000e+00 -7.3746445227739774e-03 
2.2423887232823722e-02 0.0000000000000000e+00 -7.3746445226629299e-03 
2.8647611744163970e-02 0.0000000000000000e+00 -7.7948291474504222e-03 
2.8647611743653715e-02 0.0000000000000000e+00 -7.7948291472870711e-03 
3.4778499641354377e-02 0.0000000000000000e+00 -8.0788684576716483e-03 
3.4778499640708414e-02 0.0000000000000000e+00 -8.0788684576230865e-03 
4.0758940947460326e-02 0.0000000000000000e+00 -8.2703198964154661e-03 
4.0758940946949679e-02 0.0000000000000000e+00 -8.2703198965458045e-03 
4.6551742271555160e-02 0.0000000000000000e+00 -8.3669720229171823e-03 
4.6551742271357700e-02 0.0000000000000000e+00 -8.3669720231198640e-03 
5.2082719247163338e-02 0.0000000000000000e+00 -8.3416741293388733e-03 
5.2082719247095427e-02 0.0000000000000000e+00 -8.3416741294786087e-03 
5.7218352673774564e-02 0.0000000000000000e+00 -8.1848976218096108e-03 
5.7218352673775300e-02 0.0000000000000000e+00 -8.1848976218477625e-03 
6.1857619971184115e-02 0.0000000000000000e+00 -7.9367970143485993e-03 
6.1857619971207721e-02 0.0000000000000000e+00 -7.9367970142840538e-03 
6.5990927406260419e-02 0.0000000000000000e+00 -7.6649184958282107e-03 
6.5990927406170879e-02 0.0000000000000000e+00 -7.6649184956786107e-03 
6.9687783729675323e-02 0.0000000000000000e+00 -7.4227890002599283e-03 
6.9687783729349681e-02 0.0000000000000000e+00 -7.4227890001074427e-03 
7.3033456484416476e-02 0.0000000000000000e+00 -7.2341499526483773e-03 
7.3033456483927048e-02 0.0000000000000000e+00 -7.2341499526425608e-03 
7.6117990018180981e-02 0.0000000000000000e+00 -7.1095664688808876e-03 
7.6117990017835827e-02 0.0000000000000000e+00 -7.1095664690555126e-03 
7.9029240459110750e-02 0.0000000000000000e+00 -7.0531561903328837e-03 
7.9029240458930589e-02 0.0000000000000000e+00 -7.0531561905557887e-03 
8.1848922092681534e-02 0.0000000000000000e+00 -7.0561309454305774e-03 
8.1848922092550500e-02 0.0000000000000000e+00 -7.0561309455838767e-03 
8.4635788906718440e-02 0.0000000000000000e+00 -7.1017610974793925e-03 
8.4635788906553905e-02 0.0000000000000000e+00 -7.1017610975753452e-03 
8.7512351300342905e-02 0.0000000000000000e+00 -4.3558635511958040e-03 
8.7433876161693055e-02 0.0000000000000000e+00 -7.1718961676457676e-03 
8.7512351300042895e-02 0.0000000000000000e+00 -4.3558635513201577e-03 
8.7433876161353022e-02 0.0000000000000000e+00 -7.1718961677222116e-03 
0.0000000000000000e+00 0.0000000000000000e+00 0.0000000000000000e+00 
2.0264614763778653e-03 0.0000000000000000e+00 2.0815530293466951e-03 
0.0000000000000000e+00 0.0000000000000000e+00 0.0000000000000000e+00 
2.0264614761996099e-03 0.0000000000000000e+00 2.0815530293112729e-03 
5.7324815527438370e-03 0.0000000000000000e+00 3.6752941049331541e-03 
5.7324815524060499e-03 0.0000000000000000e+00 3.6752941049336494e-03 
1.0948486825131800e-02 0.0000000000000000e+00 4.5523221661151487e-03 
1.0948486824735220e-02 0.0000000000000000e+00 4.5523221661747902e-03 
1.6921446472720016e-02 0.0000000000000000e+00 4.8384821666243010e-03 
1.6921446472371798e-02 0.0000000000000000e+00 4.8384821666916135e-03 
2.3160373063101095e-02 0.0000000000000000e+00 4.7096686872515180e-03 
2.3160373062775467e-02 0.0000000000000000e+00 4.7096686872427837e-03 
2.9391170627307846e-02 0.0000000000000000e+00 4.3476080925688807e-03 
2.9391170626770744e-02 0.0000000000000000e+00 4.3476080925658727e-03 
3.5494693949551272e-02 0.0000000000000000e+00 3.8745276648182677e-03 
3.5494693948903526e-02 0.0000000000000000e+00 3.8745276649477700e-03 
4.1435338617689471e-02 0.0000000000000000e+00 3.3459600285907724e-03 
4.1435338617197837e-02 0.0000000000000000e+00 3.3459600288061942e-03 
4.7176297347048306e-02 0.0000000000000000e+00 2.7694991992237047e-03 
4.7176297346870122e-02 0.0000000000000000e+00 2.7694991993763426e-03 
5.2636089778877654e-02 0.0000000000000000e+00 2.1341890878187036e-03 
5.2636089778871221e-02 0.0000000000000000e+00 2.1341890878644036e-03 
5.7687682905224372e-02 0.0000000000000000e+00 1.4541270827558692e-03 
5.7687682905286156e-02 0.0000000000000000e+00 1.4541270827328526e-03 
6.2244928672435001e-02 0.0000000000000000e+00 7.8249736016860658e-04 
6.2244928672471438e-02 0.0000000000000000e+00 7.8249736007601734e-04 
6.6304263914541375e-02 0.0000000000000000e+00 1.7873565877909474e-04 
6.6304263914435266e-02 0.0000000000000000e+00 1.7873565860508517e-04 
6.9943564378383671e-02 0.0000000000000000e+00 -3.2702326659706004e-04 
6.9943564378031689e-02 0.0000000000000000e+00 -3.2702326675946035e-04 
7.3250077063066993e-02 0.0000000000000000e+00 -7.3004512929150526e-04 
7.3250077062583907e-02 0.0000000000000000e+00 -7.3004512932239765e-04 
7.6306592920486999e-02 0.0000000000000000e+00 -1.0340710844774028e-03 
7.6306592920090149e-02 0.0000000000000000e+00 -1.0340710843803472e-03 
7.9199490430337693e-02 0.0000000000000000e+00 -1.2478026894808556e-03 
7.9199490430169314e-02 0.0000000000000000e+00 -1.2478026894067666e-03 
8.2011372674854907e-02 0.0000000000000000e+00 -1.3892272294229271e-03 
8.2011372674731811e-02 0.0000000000000000e+00 -1.3892272294777866e-03 
8.4797045121197220e-02 0.0000000000000000e+00 -1.4812786599607878e-03 
8.4797045120939454e-02 0.0000000000000000e+00 -1.4812786600945321e-03 
8.7593467036560319e-02 0.0000000000000000e+00 -1.5533762070387748e-03 
8.7593467036252495e-02 0.0000000000000000e+00 -1.5533762071848040e-03 

