# vtk DataFile Version 2.0

ASCII

DATASET UNSTRUCTURED_GRID

POINTS 86 double 

5.0000000000000003e-02  0.0000000000000000e+00  0.0000000000000000e+00
5.0000000000000003e-02  0.0000000000000000e+00  5.0000000000000003e-02
5.0000000000000003e-02  2.9999999999999999e-01  0.0000000000000000e+00
5.0000000000000003e-02  2.9999999999999999e-01  5.0000000000000003e-02
5.0000000000000003e-02  0.0000000000000000e+00  1.0000000000000001e-01
5.0000000000000003e-02  2.9999999999999999e-01  1.0000000000000001e-01
5.0000000000000003e-02  0.0000000000000000e+00  1.4999999999999999e-01
5.0000000000000003e-02  2.9999999999999999e-01  1.4999999999999999e-01
5.0000000000000003e-02  0.0000000000000000e+00  2.0000000000000001e-01
5.0000000000000003e-02  2.9999999999999999e-01  2.0000000000000001e-01
5.0000000000000003e-02  0.0000000000000000e+00  2.5000000000000000e-01
5.0000000000000003e-02  2.9999999999999999e-01  2.5000000000000000e-01
5.0000000000000003e-02  0.0000000000000000e+00  2.9999999999999999e-01
5.0000000000000003e-02  2.9999999999999999e-01  2.9999999999999999e-01
5.0000000000000003e-02  0.0000000000000000e+00  3.4999999999999998e-01
5.0000000000000003e-02  2.9999999999999999e-01  3.4999999999999998e-01
5.0000000000000003e-02  0.0000000000000000e+00  4.0000000000000002e-01
5.0000000000000003e-02  2.9999999999999999e-01  4.0000000000000002e-01
5.0000000000000003e-02  0.0000000000000000e+00  4.5000000000000001e-01
5.0000000000000003e-02  2.9999999999999999e-01  4.5000000000000001e-01
5.0000000000000003e-02  0.0000000000000000e+00  5.0000000000000000e-01
5.0000000000000003e-02  2.9999999999999999e-01  5.0000000000000000e-01
5.0000000000000003e-02  0.0000000000000000e+00  5.5000000000000004e-01
5.0000000000000003e-02  2.9999999999999999e-01  5.5000000000000004e-01
5.0000000000000003e-02  0.0000000000000000e+00  5.9999999999999998e-01
5.0000000000000003e-02  2.9999999999999999e-01  5.9999999999999998e-01
5.0000000000000003e-02  0.0000000000000000e+00  6.5000000000000002e-01
5.0000000000000003e-02  2.9999999999999999e-01  6.5000000000000002e-01
5.0000000000000003e-02  0.0000000000000000e+00  6.9999999999999996e-01
5.0000000000000003e-02  2.9999999999999999e-01  6.9999999999999996e-01
5.0000000000000003e-02  0.0000000000000000e+00  7.5000000000000000e-01
5.0000000000000003e-02  2.9999999999999999e-01  7.5000000000000000e-01
5.0000000000000003e-02  0.0000000000000000e+00  8.0000000000000004e-01
5.0000000000000003e-02  2.9999999999999999e-01  8.0000000000000004e-01
5.0000000000000003e-02  0.0000000000000000e+00  8.4999999999999998e-01
5.0000000000000003e-02  2.9999999999999999e-01  8.4999999999999998e-01
5.0000000000000003e-02  0.0000000000000000e+00  9.0000000000000002e-01
5.0000000000000003e-02  2.9999999999999999e-01  9.0000000000000002e-01
5.0000000000000003e-02  0.0000000000000000e+00  9.4999999999999996e-01
5.0000000000000003e-02  2.9999999999999999e-01  9.4999999999999996e-01
0.0000000000000000e+00  0.0000000000000000e+00  1.0000000000000000e+00
5.0000000000000003e-02  0.0000000000000000e+00  1.0000000000000000e+00
0.0000000000000000e+00  2.9999999999999999e-01  1.0000000000000000e+00
5.0000000000000003e-02  2.9999999999999999e-01  1.0000000000000000e+00
-5.0000000000000003e-02  0.0000000000000000e+00  0.0000000000000000e+00
-5.0000000000000003e-02  0.0000000000000000e+00  5.0000000000000003e-02
-5.0000000000000003e-02  2.9999999999999999e-01  0.0000000000000000e+00
-5.0000000000000003e-02  2.9999999999999999e-01  5.0000000000000003e-02
-5.0000000000000003e-02  0.0000000000000000e+00  1.0000000000000001e-01
-5.0000000000000003e-02  2.9999999999999999e-01  1.0000000000000001e-01
-5.0000000000000003e-02  0.0000000000000000e+00  1.4999999999999999e-01
-5.0000000000000003e-02  2.9999999999999999e-01  1.4999999999999999e-01
-5.0000000000000003e-02  0.0000000000000000e+00  2.0000000000000001e-01
-5.0000000000000003e-02  2.9999999999999999e-01  2.0000000000000001e-01
-5.0000000000000003e-02  0.0000000000000000e+00  2.5000000000000000e-01
-5.0000000000000003e-02  2.9999999999999999e-01  2.5000000000000000e-01
-5.0000000000000003e-02  0.0000000000000000e+00  2.9999999999999999e-01
-5.0000000000000003e-02  2.9999999999999999e-01  2.9999999999999999e-01
-5.0000000000000003e-02  0.0000000000000000e+00  3.4999999999999998e-01
-5.0000000000000003e-02  2.9999999999999999e-01  3.4999999999999998e-01
-5.0000000000000003e-02  0.0000000000000000e+00  4.0000000000000002e-01
-5.0000000000000003e-02  2.9999999999999999e-01  4.0000000000000002e-01
-5.0000000000000003e-02  0.0000000000000000e+00  4.5000000000000001e-01
-5.0000000000000003e-02  2.9999999999999999e-01  4.5000000000000001e-01
-5.0000000000000003e-02  0.0000000000000000e+00  5.0000000000000000e-01
-5.0000000000000003e-02  2.9999999999999999e-01  5.0000000000000000e-01
-5.0000000000000003e-02  0.0000000000000000e+00  5.5000000000000004e-01
-5.0000000000000003e-02  2.9999999999999999e-01  5.5000000000000004e-01
-5.0000000000000003e-02  0.0000000000000000e+00  5.9999999999999998e-01
-5.0000000000000003e-02  2.9999999999999999e-01  5.9999999999999998e-01
-5.0000000000000003e-02  0.0000000000000000e+00  6.5000000000000002e-01
-5.0000000000000003e-02  2.9999999999999999e-01  6.5000000000000002e-01
-5.0000000000000003e-02  0.0000000000000000e+00  6.9999999999999996e-01
-5.0000000000000003e-02  2.9999999999999999e-01  6.9999999999999996e-01
-5.0000000000000003e-02  0.0000000000000000e+00  7.5000000000000000e-01
-5.0000000000000003e-02  2.9999999999999999e-01  7.5000000000000000e-01
-5.0000000000000003e-02  0.0000000000000000e+00  8.0000000000000004e-01
-5.0000000000000003e-02  2.9999999999999999e-01  8.0000000000000004e-01
-5.0000000000000003e-02  0.0000000000000000e+00  8.4999999999999998e-01
-5.0000000000000003e-02  2.9999999999999999e-01  8.4999999999999998e-01
-5.0000000000000003e-02  0.0000000000000000e+00  9.0000000000000002e-01
-5.0000000000000003e-02  2.9999999999999999e-01  9.0000000000000002e-01
-5.0000000000000003e-02  0.0000000000000000e+00  9.4999999999999996e-01
-5.0000000000000003e-02  2.9999999999999999e-01  9.4999999999999996e-01
-5.0000000000000003e-02  0.0000000000000000e+00  1.0000000000000000e+00
-5.0000000000000003e-02  2.9999999999999999e-01  1.0000000000000000e+00

CELLS 0 0


CELL_TYPES 0


POINT_DATA 86

VECTORS VertexNormals double

0.0000000000000000e+00 0.0000000000000000e+00 0.0000000000000000e+00 
0.0000000000000000e+00 0.0000000000000000e+00 0.0000000000000000e+00 
0.0000000000000000e+00 0.0000000000000000e+00 0.0000000000000000e+00 
0.0000000000000000e+00 0.0000000000000000e+00 0.0000000000000000e+00 
0.0000000000000000e+00 0.0000000000000000e+00 0.0000000000000000e+00 
0.0000000000000000e+00 0.0000000000000000e+00 0.0000000000000000e+00 
0.0000000000000000e+00 0.0000000000000000e+00 0.0000000000000000e+00 
0.0000000000000000e+00 0.0000000000000000e+00 0.0000000000000000e+00 
0.0000000000000000e+00 0.0000000000000000e+00 0.0000000000000000e+00 
0.0000000000000000e+00 0.0000000000000000e+00 0.0000000000000000e+00 
0.0000000000000000e+00 0.0000000000000000e+00 0.0000000000000000e+00 
0.0000000000000000e+00 0.0000000000000000e+00 0.0000000000000000e+00 
0.0000000000000000e+00 0.0000000000000000e+00 0.0000000000000000e+00 
0.0000000000000000e+00 0.0000000000000000e+00 0.0000000000000000e+00 
0.0000000000000000e+00 0.0000000000000000e+00 0.0000000000000000e+00 
0.0000000000000000e+00 0.0000000000000000e+00 0.0000000000000000e+00 
0.0000000000000000e+00 0.0000000000000000e+00 0.0000000000000000e+00 
0.0000000000000000e+00 0.0000000000000000e+00 0.0000000000000000e+00 
0.0000000000000000e+00 0.0000000000000000e+00 0.0000000000000000e+00 
0.0000000000000000e+00 0.0000000000000000e+00 0.0000000000000000e+00 
0.0000000000000000e+00 0.0000000000000000e+00 0.0000000000000000e+00 
0.0000000000000000e+00 0.0000000000000000e+00 0.0000000000000000e+00 
0.0000000000000000e+00 0.0000000000000000e+00 0.0000000000000000e+00 
0.0000000000000000e+00 0.0000000000000000e+00 0.0000000000000000e+00 
0.0000000000000000e+00 0.0000000000000000e+00 0.0000000000000000e+00 
0.0000000000000000e+00 0.0000000000000000e+00 0.0000000000000000e+00 
0.0000000000000000e+00 0.0000000000000000e+00 0.0000000000000000e+00 
0.0000000000000000e+00 0.0000000000000000e+00 0.0000000000000000e+00 
0.0000000000000000e+00 0.0000000000000000e+00 0.0000000000000000e+00 
0.0000000000000000e+00 0.0000000000000000e+00 0.0000000000000000e+00 
0.0000000000000000e+00 0.0000000000000000e+00 0.0000000000000000e+00 
0.0000000000000000e+00 0.0000000000000000e+00 0.0000000000000000e+00 
0.0000000000000000e+00 0.0000000000000000e+00 0.0000000000000000e+00 
0.0000000000000000e+00 0.0000000000000000e+00 0.0000000000000000e+00 
0.0000000000000000e+00 0.0000000000000000e+00 0.0000000000000000e+00 
0.0000000000000000e+00 0.0000000000000000e+00 0.0000000000000000e+00 
0.0000000000000000e+00 0.0000000000000000e+00 0.0000000000000000e+00 
0.0000000000000000e+00 0.0000000000000000e+00 0.0000000000000000e+00 
0.0000000000000000e+00 0.0000000000000000e+00 0.0000000000000000e+00 
0.0000000000000000e+00 0.0000000000000000e+00 0.0000000000000000e+00 
0.0000000000000000e+00 0.0000000000000000e+00 0.0000000000000000e+00 
0.0000000000000000e+00 0.0000000000000000e+00 0.0000000000000000e+00 
0.0000000000000000e+00 0.0000000000000000e+00 0.0000000000000000e+00 
0.0000000000000000e+00 0.0000000000000000e+00 0.0000000000000000e+00 
0.0000000000000000e+00 0.0000000000000000e+00 0.0000000000000000e+00 
0.0000000000000000e+00 0.0000000000000000e+00 0.0000000000000000e+00 
0.0000000000000000e+00 0.0000000000000000e+00 0.0000000000000000e+00 
0.0000000000000000e+00 0.0000000000000000e+00 0.0000000000000000e+00 
0.0000000000000000e+00 0.0000000000000000e+00 0.0000000000000000e+00 
0.0000000000000000e+00 0.0000000000000000e+00 0.0000000000000000e+00 
0.0000000000000000e+00 0.0000000000000000e+00 0.0000000000000000e+00 
0.0000000000000000e+00 0.0000000000000000e+00 0.0000000000000000e+00 
0.0000000000000000e+00 0.0000000000000000e+00 0.0000000000000000e+00 
0.0000000000000000e+00 0.0000000000000000e+00 0.0000000000000000e+00 
0.0000000000000000e+00 0.0000000000000000e+00 0.0000000000000000e+00 
0.0000000000000000e+00 0.0000000000000000e+00 0.0000000000000000e+00 
0.0000000000000000e+00 0.0000000000000000e+00 0.0000000000000000e+00 
0.0000000000000000e+00 0.0000000000000000e+00 0.0000000000000000e+00 
0.0000000000000000e+00 0.0000000000000000e+00 0.0000000000000000e+00 
0.0000000000000000e+00 0.0000000000000000e+00 0.0000000000000000e+00 
0.0000000000000000e+00 0.0000000000000000e+00 0.0000000000000000e+00 
0.0000000000000000e+00 0.0000000000000000e+00 0.0000000000000000e+00 
0.0000000000000000e+00 0.0000000000000000e+00 0.0000000000000000e+00 
0.0000000000000000e+00 0.0000000000000000e+00 0.0000000000000000e+00 
0.0000000000000000e+00 0.0000000000000000e+00 0.0000000000000000e+00 
0.0000000000000000e+00 0.0000000000000000e+00 0.0000000000000000e+00 
0.0000000000000000e+00 0.0000000000000000e+00 0.0000000000000000e+00 
0.0000000000000000e+00 0.0000000000000000e+00 0.0000000000000000e+00 
0.0000000000000000e+00 0.0000000000000000e+00 0.0000000000000000e+00 
0.0000000000000000e+00 0.0000000000000000e+00 0.0000000000000000e+00 
0.0000000000000000e+00 0.0000000000000000e+00 0.0000000000000000e+00 
0.0000000000000000e+00 0.0000000000000000e+00 0.0000000000000000e+00 
0.0000000000000000e+00 0.0000000000000000e+00 0.0000000000000000e+00 
0.0000000000000000e+00 0.0000000000000000e+00 0.0000000000000000e+00 
0.0000000000000000e+00 0.0000000000000000e+00 0.0000000000000000e+00 
0.0000000000000000e+00 0.0000000000000000e+00 0.0000000000000000e+00 
0.0000000000000000e+00 0.0000000000000000e+00 0.0000000000000000e+00 
0.0000000000000000e+00 0.0000000000000000e+00 0.0000000000000000e+00 
0.0000000000000000e+00 0.0000000000000000e+00 0.0000000000000000e+00 
0.0000000000000000e+00 0.0000000000000000e+00 0.0000000000000000e+00 
0.0000000000000000e+00 0.0000000000000000e+00 0.0000000000000000e+00 
0.0000000000000000e+00 0.0000000000000000e+00 0.0000000000000000e+00 
0.0000000000000000e+00 0.0000000000000000e+00 0.0000000000000000e+00 
0.0000000000000000e+00 0.0000000000000000e+00 0.0000000000000000e+00 
0.0000000000000000e+00 0.0000000000000000e+00 0.0000000000000000e+00 
0.0000000000000000e+00 0.0000000000000000e+00 0.0000000000000000e+00 

VECTORS Forces0 double
-6.7827390793080172e-02 0.0000000000000000e+00 3.0331780879609064e-03 
-6.2863778075607279e-02 0.0000000000000000e+00 1.2711529978776581e-03 
-6.7827390355242198e-02 0.0000000000000000e+00 3.0331781207994291e-03 
-6.2863777988349440e-02 0.0000000000000000e+00 1.2711529973191225e-03 
-1.1747401513393246e-01 0.0000000000000000e+00 8.6213168289912389e-03 
-1.1747401583351490e-01 0.0000000000000000e+00 8.6213166812516007e-03 
-8.7567433922400753e-02 0.0000000000000000e+00 9.9433069445194946e-03 
-8.7567433747749140e-02 0.0000000000000000e+00 9.9433069450079528e-03 
-7.3710179765698880e-02 0.0000000000000000e+00 1.0037147976473707e-02 
-7.3710179854564892e-02 0.0000000000000000e+00 1.0037148041899384e-02 
-8.4856796163565479e-02 0.0000000000000000e+00 1.3372338965836115e-02 
-8.4856796164454421e-02 0.0000000000000000e+00 1.3372338982018173e-02 
-1.0636972973518971e-01 0.0000000000000000e+00 2.0725301854340458e-02 
-1.0636972973605555e-01 0.0000000000000000e+00 2.0725301805042274e-02 
-7.0101224831712661e-02 0.0000000000000000e+00 1.6146874325191934e-02 
-7.0101225270455300e-02 0.0000000000000000e+00 1.6146874259669718e-02 
-4.9826888320993440e-02 0.0000000000000000e+00 1.2424503264940091e-02 
-4.9826888146258949e-02 0.0000000000000000e+00 1.2424503313808769e-02 
-5.3131885878166432e-02 0.0000000000000000e+00 1.3958869554882812e-02 
-5.3131886052302950e-02 0.0000000000000000e+00 1.3958869686056381e-02 
-5.6150331280428033e-02 0.0000000000000000e+00 1.6106389485584391e-02 
-5.6150330755110528e-02 0.0000000000000000e+00 1.6106389518322408e-02 
-2.0597000146986462e-02 0.0000000000000000e+00 7.1060109427544919e-03 
-2.0597000320823417e-02 0.0000000000000000e+00 7.1060109917762465e-03 
9.1345379565621284e-04 0.0000000000000000e+00 1.0757995960657908e-03 
9.1345440834756991e-04 0.0000000000000000e+00 1.0757996457240646e-03 
2.1111463387218140e-03 0.0000000000000000e+00 7.7508871449005409e-04 
2.1111458139140274e-03 0.0000000000000000e+00 7.7508868201053524e-04 
1.1771939261497043e-02 0.0000000000000000e+00 -1.7325045426592207e-03 
1.1771939086383215e-02 0.0000000000000000e+00 -1.7325045753958206e-03 
3.5141888744284679e-02 0.0000000000000000e+00 -9.1176495681372562e-03 
3.5141889356645854e-02 0.0000000000000000e+00 -9.1176494696358079e-03 
5.2064479194637810e-02 0.0000000000000000e+00 -1.4497438172058060e-02 
5.2064478844580563e-02 0.0000000000000000e+00 -1.4497438237669363e-02 
5.3686943739682844e-02 0.0000000000000000e+00 -1.4956849216947815e-02 
5.3686943567882582e-02 0.0000000000000000e+00 -1.4956849167824447e-02 
6.7702027706278076e-02 0.0000000000000000e+00 -1.9386666222723049e-02 
6.7702027705592624e-02 0.0000000000000000e+00 -1.9386666189505172e-02 
8.9330141478417419e-02 0.0000000000000000e+00 -2.4448369366994807e-02 
8.9330141739090443e-02 0.0000000000000000e+00 -2.4448369349898628e-02 
1.2443674831275316e-01 0.0000000000000000e+00 3.7688327650157072e-01 
4.3217081943188691e-02 0.0000000000000000e+00 5.8927860489853948e-02 
1.2443674822463677e-01 0.0000000000000000e+00 3.7688327655045800e-01 
4.3217082116095290e-02 0.0000000000000000e+00 5.8927860457042132e-02 
4.0723623842808432e-01 0.0000000000000000e+00 -1.1681646210868816e-02 
1.1597211508163863e+00 0.0000000000000000e+00 -4.0623471729267800e-02 
4.0723623851635204e-01 0.0000000000000000e+00 -1.1681646259978340e-02 
1.1597211504655562e+00 0.0000000000000000e+00 -4.0623471761949317e-02 
1.1753925615688707e+00 0.0000000000000000e+00 -8.4646789546538065e-02 
1.1753925616562357e+00 0.0000000000000000e+00 -8.4646789497861558e-02 
1.0280423849697173e+00 0.0000000000000000e+00 -1.0917058699137221e-01 
1.0280423849698039e+00 0.0000000000000000e+00 -1.0917058700762421e-01 
1.0143086200868230e+00 0.0000000000000000e+00 -1.3197347800550799e-01 
1.0143086201743325e+00 0.0000000000000000e+00 -1.3197347792367078e-01 
1.0101795318864171e+00 0.0000000000000000e+00 -1.5529986390157791e-01 
1.0101795317102977e+00 0.0000000000000000e+00 -1.5529986390155803e-01 
1.1458640059611034e+00 0.0000000000000000e+00 -2.1464525231752329e-01 
1.1458640062226961e+00 0.0000000000000000e+00 -2.1464525236678725e-01 
9.6226292996750662e-01 0.0000000000000000e+00 -2.0722583064293837e-01 
9.6226293022980525e-01 0.0000000000000000e+00 -2.0722583059388877e-01 
9.3779476135271722e-01 0.0000000000000000e+00 -2.1613909905204554e-01 
9.3779476108965709e-01 0.0000000000000000e+00 -2.1613909910107804e-01 
9.1862932927983243e-01 0.0000000000000000e+00 -2.2545653526084630e-01 
9.1862932936739861e-01 0.0000000000000000e+00 -2.2545653532640245e-01 
1.0214316082508552e+00 0.0000000000000000e+00 -2.6804662567092014e-01 
1.0214316087753572e+00 0.0000000000000000e+00 -2.6804662570381588e-01 
8.4343933031871010e-01 0.0000000000000000e+00 -2.3288996653310615e-01 
8.4343933040615893e-01 0.0000000000000000e+00 -2.3288996654947897e-01 
8.1100675903431485e-01 0.0000000000000000e+00 -2.3009366969655512e-01 
8.1100675885928930e-01 0.0000000000000000e+00 -2.3009366971292827e-01 
7.8200812212313919e-01 0.0000000000000000e+00 -2.2779712433321384e-01 
7.8200812221073013e-01 0.0000000000000000e+00 -2.2779712436592386e-01 
8.4603237149103983e-01 0.0000000000000000e+00 -2.5335135833319627e-01 
8.4603237166603429e-01 0.0000000000000000e+00 -2.5335135833319788e-01 
6.7390557736887158e-01 0.0000000000000000e+00 -2.0632405468981910e-01 
6.7390557728104661e-01 0.0000000000000000e+00 -2.0632405467347703e-01 
6.2517091693664850e-01 0.0000000000000000e+00 -1.9378224550379919e-01 
6.2517091702375538e-01 0.0000000000000000e+00 -1.9378224547102979e-01 
5.7664501189519191e-01 0.0000000000000000e+00 -1.8075829879490662e-01 
5.7664501198270146e-01 0.0000000000000000e+00 -1.8075829877849667e-01 
5.6196172680515533e-01 0.0000000000000000e+00 -1.8013978270693817e-01 
5.6196172671818456e-01 0.0000000000000000e+00 -1.8013978269059619e-01 
3.8715148003053895e-01 0.0000000000000000e+00 -1.1681027209458270e-01 
3.8715148003024402e-01 0.0000000000000000e+00 -1.1681027209451511e-01 
1.9836836843688968e-01 0.0000000000000000e+00 1.4724610093758209e-01 
1.9836836843688851e-01 0.0000000000000000e+00 1.4724610095389781e-01 

VECTORS Displacements0 double
6.9356603593235591e-310 0.0000000000000000e+00 0.0000000000000000e+00 
1.1882183206284227e-03 0.0000000000000000e+00 -1.7775937714396379e-03 
0.0000000000000000e+00 0.0000000000000000e+00 0.0000000000000000e+00 
1.1882183207160999e-03 0.0000000000000000e+00 -1.7775937715458141e-03 
3.7453950893624297e-03 0.0000000000000000e+00 -3.6237871472339818e-03 
3.7453950895534219e-03 0.0000000000000000e+00 -3.6237871473366163e-03 
7.9763938908999407e-03 0.0000000000000000e+00 -5.4742923748423000e-03 
7.9763938911616965e-03 0.0000000000000000e+00 -5.4742923748241339e-03 
1.3754943203965591e-02 0.0000000000000000e+00 -7.4031869281538671e-03 
1.3754943203981358e-02 0.0000000000000000e+00 -7.4031869280309377e-03 
2.1026297679686355e-02 0.0000000000000000e+00 -9.4137119348001921e-03 
2.1026297679442939e-02 0.0000000000000000e+00 -9.4137119346859397e-03 
2.9657434280374966e-02 0.0000000000000000e+00 -1.1484340503135602e-02 
2.9657434279954292e-02 0.0000000000000000e+00 -1.1484340503087442e-02 
3.9462342038182496e-02 0.0000000000000000e+00 -1.3596445872845043e-02 
3.9462342037624568e-02 0.0000000000000000e+00 -1.3596445872837952e-02 
5.0250660009775037e-02 0.0000000000000000e+00 -1.5757755134709624e-02 
5.0250660009148809e-02 0.0000000000000000e+00 -1.5757755134723352e-02 
6.1890541084521536e-02 0.0000000000000000e+00 -1.7994822125523228e-02 
6.1890541083817439e-02 0.0000000000000000e+00 -1.7994822125588034e-02 
7.4302809879421672e-02 0.0000000000000000e+00 -2.0321042672265602e-02 
7.4302809878850587e-02 0.0000000000000000e+00 -2.0321042672434259e-02 
8.7401694235275773e-02 0.0000000000000000e+00 -2.2722254554623310e-02 
8.7401694234787886e-02 0.0000000000000000e+00 -2.2722254554871993e-02 
1.0107023952500138e-01 0.0000000000000000e+00 -2.5181263237409410e-02 
1.0107023952474860e-01 0.0000000000000000e+00 -2.5181263237717383e-02 
1.1521094342923470e-01 0.0000000000000000e+00 -2.7705273978064018e-02 
1.1521094342917547e-01 0.0000000000000000e+00 -2.7705273978372819e-02 
1.2978543088980815e-01 0.0000000000000000e+00 -3.0312048139995395e-02 
1.2978543089000505e-01 0.0000000000000000e+00 -3.0312048140205862e-02 
1.4478103947082860e-01 0.0000000000000000e+00 -3.2993406983601613e-02 
1.4478103947105081e-01 0.0000000000000000e+00 -3.2993406983611598e-02 
1.6014755501044273e-01 0.0000000000000000e+00 -3.5707664324864906e-02 
1.6014755501044795e-01 0.0000000000000000e+00 -3.5707664324704756e-02 
1.7578459575149133e-01 0.0000000000000000e+00 -3.8410880508236878e-02 
1.7578459575125377e-01 0.0000000000000000e+00 -3.8410880508001080e-02 
1.9158937817130703e-01 0.0000000000000000e+00 -4.1083771188658795e-02 
1.9158937817091076e-01 0.0000000000000000e+00 -4.1083771188424469e-02 
2.0748501209493037e-01 0.0000000000000000e+00 -4.3724329052442341e-02 
2.0748501209445638e-01 0.0000000000000000e+00 -4.3724329052234792e-02 
2.2600521493471828e-01 0.0000000000000000e+00 -3.0423169601537139e-02 
2.2340458927942114e-01 0.0000000000000000e+00 -4.6336901533955401e-02 
2.2600521493418543e-01 0.0000000000000000e+00 -3.0423169601386930e-02 
2.2340458927889903e-01 0.0000000000000000e+00 -4.6336901533755831e-02 
0.0000000000000000e+00 0.0000000000000000e+00 0.0000000000000000e+00 
1.2735315721271437e-03 0.0000000000000000e+00 1.6825171483533076e-03 
0.0000000000000000e+00 0.0000000000000000e+00 0.0000000000000000e+00 
1.2735315722244699e-03 0.0000000000000000e+00 1.6825171483910958e-03 
4.0197693143676494e-03 0.0000000000000000e+00 3.3115481725775821e-03 
4.0197693145845688e-03 0.0000000000000000e+00 3.3115481725581450e-03 
8.5244635799443854e-03 0.0000000000000000e+00 4.7185337437412756e-03 
8.5244635801536173e-03 0.0000000000000000e+00 4.7185337435732997e-03 
1.4666228760870526e-02 0.0000000000000000e+00 5.8765319379604245e-03 
1.4666228760769631e-02 0.0000000000000000e+00 5.8765319377055763e-03 
2.2357682863615301e-02 0.0000000000000000e+00 6.7098140547638511e-03 
2.2357682863274903e-02 0.0000000000000000e+00 6.7098140545170841e-03 
3.1433668810564024e-02 0.0000000000000000e+00 7.1589812588310009e-03 
3.1433668810072556e-02 0.0000000000000000e+00 7.1589812586302015e-03 
4.1669350723549610e-02 0.0000000000000000e+00 7.2133522551886559e-03 
4.1669350722980267e-02 0.0000000000000000e+00 7.2133522550217617e-03 
5.2871713711395062e-02 0.0000000000000000e+00 6.9090206927538127e-03 
5.2871713710723682e-02 0.0000000000000000e+00 6.9090206926408970e-03 
6.4906449305063355e-02 0.0000000000000000e+00 6.2949643136703962e-03 
6.4906449304409156e-02 0.0000000000000000e+00 6.2949643136366697e-03 
7.7691430910741724e-02 0.0000000000000000e+00 5.3952877740385792e-03 
7.7691430910219142e-02 0.0000000000000000e+00 5.3952877740779002e-03 
9.1123002671961814e-02 0.0000000000000000e+00 4.2226711259354694e-03 
9.1123002671620740e-02 0.0000000000000000e+00 4.2226711260055375e-03 
1.0508966277750295e-01 0.0000000000000000e+00 2.8052164361357279e-03 
1.0508966277737684e-01 0.0000000000000000e+00 2.8052164361955941e-03 
1.1950219090909669e-01 0.0000000000000000e+00 1.1907606544463234e-03 
1.1950219090920024e-01 0.0000000000000000e+00 1.1907606544426827e-03 
1.3433326411885477e-01 0.0000000000000000e+00 -5.9247678891147834e-04 
1.3433326411909863e-01 0.0000000000000000e+00 -5.9247678904301060e-04 
1.4955737250427065e-01 0.0000000000000000e+00 -2.5479630503241679e-03 
1.4955737250443202e-01 0.0000000000000000e+00 -2.5479630505674008e-03 
1.6511022958368762e-01 0.0000000000000000e+00 -4.6879081763658058e-03 
1.6511022958357846e-01 0.0000000000000000e+00 -4.6879081765934310e-03 
1.8087696014879998e-01 0.0000000000000000e+00 -6.9940364223496183e-03 
1.8087696014847876e-01 0.0000000000000000e+00 -6.9940364224813324e-03 
1.9675844706648937e-01 0.0000000000000000e+00 -9.4267558691481842e-03 
1.9675844706600573e-01 0.0000000000000000e+00 -9.4267558691517248e-03 
2.1268529895418933e-01 0.0000000000000000e+00 -1.1946651929110454e-02 
2.1268529895367924e-01 0.0000000000000000e+00 -1.1946651929029212e-02 
2.2860995360702907e-01 0.0000000000000000e+00 -1.4519773458139996e-02 
2.2860995360650999e-01 0.0000000000000000e+00 -1.4519773458023610e-02 

