# vtk DataFile Version 2.0

ASCII

DATASET UNSTRUCTURED_GRID

POINTS 86 float 

5.0000000000000003e-02  0.0000000000000000e+00  0.0000000000000000e+00
5.0000000000000003e-02  0.0000000000000000e+00  5.0000000000000003e-02
5.0000000000000003e-02  2.9999999999999999e-01  0.0000000000000000e+00
5.0000000000000003e-02  2.9999999999999999e-01  5.0000000000000003e-02
5.0000000000000003e-02  0.0000000000000000e+00  1.0000000000000001e-01
5.0000000000000003e-02  2.9999999999999999e-01  1.0000000000000001e-01
5.0000000000000003e-02  0.0000000000000000e+00  1.4999999999999999e-01
5.0000000000000003e-02  2.9999999999999999e-01  1.4999999999999999e-01
5.0000000000000003e-02  0.0000000000000000e+00  2.0000000000000001e-01
5.0000000000000003e-02  2.9999999999999999e-01  2.0000000000000001e-01
5.0000000000000003e-02  0.0000000000000000e+00  2.5000000000000000e-01
5.0000000000000003e-02  2.9999999999999999e-01  2.5000000000000000e-01
5.0000000000000003e-02  0.0000000000000000e+00  2.9999999999999999e-01
5.0000000000000003e-02  2.9999999999999999e-01  2.9999999999999999e-01
5.0000000000000003e-02  0.0000000000000000e+00  3.4999999999999998e-01
5.0000000000000003e-02  2.9999999999999999e-01  3.4999999999999998e-01
5.0000000000000003e-02  0.0000000000000000e+00  4.0000000000000002e-01
5.0000000000000003e-02  2.9999999999999999e-01  4.0000000000000002e-01
5.0000000000000003e-02  0.0000000000000000e+00  4.5000000000000001e-01
5.0000000000000003e-02  2.9999999999999999e-01  4.5000000000000001e-01
5.0000000000000003e-02  0.0000000000000000e+00  5.0000000000000000e-01
5.0000000000000003e-02  2.9999999999999999e-01  5.0000000000000000e-01
5.0000000000000003e-02  0.0000000000000000e+00  5.5000000000000004e-01
5.0000000000000003e-02  2.9999999999999999e-01  5.5000000000000004e-01
5.0000000000000003e-02  0.0000000000000000e+00  5.9999999999999998e-01
5.0000000000000003e-02  2.9999999999999999e-01  5.9999999999999998e-01
5.0000000000000003e-02  0.0000000000000000e+00  6.5000000000000002e-01
5.0000000000000003e-02  2.9999999999999999e-01  6.5000000000000002e-01
5.0000000000000003e-02  0.0000000000000000e+00  6.9999999999999996e-01
5.0000000000000003e-02  2.9999999999999999e-01  6.9999999999999996e-01
5.0000000000000003e-02  0.0000000000000000e+00  7.5000000000000000e-01
5.0000000000000003e-02  2.9999999999999999e-01  7.5000000000000000e-01
5.0000000000000003e-02  0.0000000000000000e+00  8.0000000000000004e-01
5.0000000000000003e-02  2.9999999999999999e-01  8.0000000000000004e-01
5.0000000000000003e-02  0.0000000000000000e+00  8.4999999999999998e-01
5.0000000000000003e-02  2.9999999999999999e-01  8.4999999999999998e-01
5.0000000000000003e-02  0.0000000000000000e+00  9.0000000000000002e-01
5.0000000000000003e-02  2.9999999999999999e-01  9.0000000000000002e-01
5.0000000000000003e-02  0.0000000000000000e+00  9.4999999999999996e-01
5.0000000000000003e-02  2.9999999999999999e-01  9.4999999999999996e-01
0.0000000000000000e+00  0.0000000000000000e+00  1.0000000000000000e+00
5.0000000000000003e-02  0.0000000000000000e+00  1.0000000000000000e+00
0.0000000000000000e+00  2.9999999999999999e-01  1.0000000000000000e+00
5.0000000000000003e-02  2.9999999999999999e-01  1.0000000000000000e+00
-5.0000000000000003e-02  0.0000000000000000e+00  0.0000000000000000e+00
-5.0000000000000003e-02  0.0000000000000000e+00  5.0000000000000003e-02
-5.0000000000000003e-02  2.9999999999999999e-01  0.0000000000000000e+00
-5.0000000000000003e-02  2.9999999999999999e-01  5.0000000000000003e-02
-5.0000000000000003e-02  0.0000000000000000e+00  1.0000000000000001e-01
-5.0000000000000003e-02  2.9999999999999999e-01  1.0000000000000001e-01
-5.0000000000000003e-02  0.0000000000000000e+00  1.4999999999999999e-01
-5.0000000000000003e-02  2.9999999999999999e-01  1.4999999999999999e-01
-5.0000000000000003e-02  0.0000000000000000e+00  2.0000000000000001e-01
-5.0000000000000003e-02  2.9999999999999999e-01  2.0000000000000001e-01
-5.0000000000000003e-02  0.0000000000000000e+00  2.5000000000000000e-01
-5.0000000000000003e-02  2.9999999999999999e-01  2.5000000000000000e-01
-5.0000000000000003e-02  0.0000000000000000e+00  2.9999999999999999e-01
-5.0000000000000003e-02  2.9999999999999999e-01  2.9999999999999999e-01
-5.0000000000000003e-02  0.0000000000000000e+00  3.4999999999999998e-01
-5.0000000000000003e-02  2.9999999999999999e-01  3.4999999999999998e-01
-5.0000000000000003e-02  0.0000000000000000e+00  4.0000000000000002e-01
-5.0000000000000003e-02  2.9999999999999999e-01  4.0000000000000002e-01
-5.0000000000000003e-02  0.0000000000000000e+00  4.5000000000000001e-01
-5.0000000000000003e-02  2.9999999999999999e-01  4.5000000000000001e-01
-5.0000000000000003e-02  0.0000000000000000e+00  5.0000000000000000e-01
-5.0000000000000003e-02  2.9999999999999999e-01  5.0000000000000000e-01
-5.0000000000000003e-02  0.0000000000000000e+00  5.5000000000000004e-01
-5.0000000000000003e-02  2.9999999999999999e-01  5.5000000000000004e-01
-5.0000000000000003e-02  0.0000000000000000e+00  5.9999999999999998e-01
-5.0000000000000003e-02  2.9999999999999999e-01  5.9999999999999998e-01
-5.0000000000000003e-02  0.0000000000000000e+00  6.5000000000000002e-01
-5.0000000000000003e-02  2.9999999999999999e-01  6.5000000000000002e-01
-5.0000000000000003e-02  0.0000000000000000e+00  6.9999999999999996e-01
-5.0000000000000003e-02  2.9999999999999999e-01  6.9999999999999996e-01
-5.0000000000000003e-02  0.0000000000000000e+00  7.5000000000000000e-01
-5.0000000000000003e-02  2.9999999999999999e-01  7.5000000000000000e-01
-5.0000000000000003e-02  0.0000000000000000e+00  8.0000000000000004e-01
-5.0000000000000003e-02  2.9999999999999999e-01  8.0000000000000004e-01
-5.0000000000000003e-02  0.0000000000000000e+00  8.4999999999999998e-01
-5.0000000000000003e-02  2.9999999999999999e-01  8.4999999999999998e-01
-5.0000000000000003e-02  0.0000000000000000e+00  9.0000000000000002e-01
-5.0000000000000003e-02  2.9999999999999999e-01  9.0000000000000002e-01
-5.0000000000000003e-02  0.0000000000000000e+00  9.4999999999999996e-01
-5.0000000000000003e-02  2.9999999999999999e-01  9.4999999999999996e-01
-5.0000000000000003e-02  0.0000000000000000e+00  1.0000000000000000e+00
-5.0000000000000003e-02  2.9999999999999999e-01  1.0000000000000000e+00

CELLS 0 0


CELL_TYPES 0


POINT_DATA 86

VECTORS VertexNormals float

0.0000000000000000e+00 0.0000000000000000e+00 0.0000000000000000e+00 
0.0000000000000000e+00 0.0000000000000000e+00 0.0000000000000000e+00 
0.0000000000000000e+00 0.0000000000000000e+00 0.0000000000000000e+00 
0.0000000000000000e+00 0.0000000000000000e+00 0.0000000000000000e+00 
0.0000000000000000e+00 0.0000000000000000e+00 0.0000000000000000e+00 
0.0000000000000000e+00 0.0000000000000000e+00 0.0000000000000000e+00 
0.0000000000000000e+00 0.0000000000000000e+00 0.0000000000000000e+00 
0.0000000000000000e+00 0.0000000000000000e+00 0.0000000000000000e+00 
0.0000000000000000e+00 0.0000000000000000e+00 0.0000000000000000e+00 
0.0000000000000000e+00 0.0000000000000000e+00 0.0000000000000000e+00 
0.0000000000000000e+00 0.0000000000000000e+00 0.0000000000000000e+00 
0.0000000000000000e+00 0.0000000000000000e+00 0.0000000000000000e+00 
0.0000000000000000e+00 0.0000000000000000e+00 0.0000000000000000e+00 
0.0000000000000000e+00 0.0000000000000000e+00 0.0000000000000000e+00 
0.0000000000000000e+00 0.0000000000000000e+00 0.0000000000000000e+00 
0.0000000000000000e+00 0.0000000000000000e+00 0.0000000000000000e+00 
0.0000000000000000e+00 0.0000000000000000e+00 0.0000000000000000e+00 
0.0000000000000000e+00 0.0000000000000000e+00 0.0000000000000000e+00 
0.0000000000000000e+00 0.0000000000000000e+00 0.0000000000000000e+00 
0.0000000000000000e+00 0.0000000000000000e+00 0.0000000000000000e+00 
0.0000000000000000e+00 0.0000000000000000e+00 0.0000000000000000e+00 
0.0000000000000000e+00 0.0000000000000000e+00 0.0000000000000000e+00 
0.0000000000000000e+00 0.0000000000000000e+00 0.0000000000000000e+00 
0.0000000000000000e+00 0.0000000000000000e+00 0.0000000000000000e+00 
0.0000000000000000e+00 0.0000000000000000e+00 0.0000000000000000e+00 
0.0000000000000000e+00 0.0000000000000000e+00 0.0000000000000000e+00 
0.0000000000000000e+00 0.0000000000000000e+00 0.0000000000000000e+00 
0.0000000000000000e+00 0.0000000000000000e+00 0.0000000000000000e+00 
0.0000000000000000e+00 0.0000000000000000e+00 0.0000000000000000e+00 
0.0000000000000000e+00 0.0000000000000000e+00 0.0000000000000000e+00 
0.0000000000000000e+00 0.0000000000000000e+00 0.0000000000000000e+00 
0.0000000000000000e+00 0.0000000000000000e+00 0.0000000000000000e+00 
0.0000000000000000e+00 0.0000000000000000e+00 0.0000000000000000e+00 
0.0000000000000000e+00 0.0000000000000000e+00 0.0000000000000000e+00 
0.0000000000000000e+00 0.0000000000000000e+00 0.0000000000000000e+00 
0.0000000000000000e+00 0.0000000000000000e+00 0.0000000000000000e+00 
0.0000000000000000e+00 0.0000000000000000e+00 0.0000000000000000e+00 
0.0000000000000000e+00 0.0000000000000000e+00 0.0000000000000000e+00 
0.0000000000000000e+00 0.0000000000000000e+00 0.0000000000000000e+00 
0.0000000000000000e+00 0.0000000000000000e+00 0.0000000000000000e+00 
0.0000000000000000e+00 0.0000000000000000e+00 0.0000000000000000e+00 
0.0000000000000000e+00 0.0000000000000000e+00 0.0000000000000000e+00 
0.0000000000000000e+00 0.0000000000000000e+00 0.0000000000000000e+00 
0.0000000000000000e+00 0.0000000000000000e+00 0.0000000000000000e+00 
0.0000000000000000e+00 0.0000000000000000e+00 0.0000000000000000e+00 
0.0000000000000000e+00 0.0000000000000000e+00 0.0000000000000000e+00 
0.0000000000000000e+00 0.0000000000000000e+00 0.0000000000000000e+00 
0.0000000000000000e+00 0.0000000000000000e+00 0.0000000000000000e+00 
0.0000000000000000e+00 0.0000000000000000e+00 0.0000000000000000e+00 
0.0000000000000000e+00 0.0000000000000000e+00 0.0000000000000000e+00 
0.0000000000000000e+00 0.0000000000000000e+00 0.0000000000000000e+00 
0.0000000000000000e+00 0.0000000000000000e+00 0.0000000000000000e+00 
0.0000000000000000e+00 0.0000000000000000e+00 0.0000000000000000e+00 
0.0000000000000000e+00 0.0000000000000000e+00 0.0000000000000000e+00 
0.0000000000000000e+00 0.0000000000000000e+00 0.0000000000000000e+00 
0.0000000000000000e+00 0.0000000000000000e+00 0.0000000000000000e+00 
0.0000000000000000e+00 0.0000000000000000e+00 0.0000000000000000e+00 
0.0000000000000000e+00 0.0000000000000000e+00 0.0000000000000000e+00 
0.0000000000000000e+00 0.0000000000000000e+00 0.0000000000000000e+00 
0.0000000000000000e+00 0.0000000000000000e+00 0.0000000000000000e+00 
0.0000000000000000e+00 0.0000000000000000e+00 0.0000000000000000e+00 
0.0000000000000000e+00 0.0000000000000000e+00 0.0000000000000000e+00 
0.0000000000000000e+00 0.0000000000000000e+00 0.0000000000000000e+00 
0.0000000000000000e+00 0.0000000000000000e+00 0.0000000000000000e+00 
0.0000000000000000e+00 0.0000000000000000e+00 0.0000000000000000e+00 
0.0000000000000000e+00 0.0000000000000000e+00 0.0000000000000000e+00 
0.0000000000000000e+00 0.0000000000000000e+00 0.0000000000000000e+00 
0.0000000000000000e+00 0.0000000000000000e+00 0.0000000000000000e+00 
0.0000000000000000e+00 0.0000000000000000e+00 0.0000000000000000e+00 
0.0000000000000000e+00 0.0000000000000000e+00 0.0000000000000000e+00 
0.0000000000000000e+00 0.0000000000000000e+00 0.0000000000000000e+00 
0.0000000000000000e+00 0.0000000000000000e+00 0.0000000000000000e+00 
0.0000000000000000e+00 0.0000000000000000e+00 0.0000000000000000e+00 
0.0000000000000000e+00 0.0000000000000000e+00 0.0000000000000000e+00 
0.0000000000000000e+00 0.0000000000000000e+00 0.0000000000000000e+00 
0.0000000000000000e+00 0.0000000000000000e+00 0.0000000000000000e+00 
0.0000000000000000e+00 0.0000000000000000e+00 0.0000000000000000e+00 
0.0000000000000000e+00 0.0000000000000000e+00 0.0000000000000000e+00 
0.0000000000000000e+00 0.0000000000000000e+00 0.0000000000000000e+00 
0.0000000000000000e+00 0.0000000000000000e+00 0.0000000000000000e+00 
0.0000000000000000e+00 0.0000000000000000e+00 0.0000000000000000e+00 
0.0000000000000000e+00 0.0000000000000000e+00 0.0000000000000000e+00 
0.0000000000000000e+00 0.0000000000000000e+00 0.0000000000000000e+00 
0.0000000000000000e+00 0.0000000000000000e+00 0.0000000000000000e+00 
0.0000000000000000e+00 0.0000000000000000e+00 0.0000000000000000e+00 
0.0000000000000000e+00 0.0000000000000000e+00 0.0000000000000000e+00 

VECTORS Forces0 float
-2.4966956135034601e-01 0.0000000000000000e+00 6.3756426736665235e-03 
-5.3743345125948905e-01 0.0000000000000000e+00 2.1042506609968321e-02 
-2.4966956142336350e-01 0.0000000000000000e+00 6.3756427426757863e-03 
-5.3743345126005870e-01 0.0000000000000000e+00 2.1042506467715456e-02 
-6.1490414558237094e-01 0.0000000000000000e+00 5.5428088770619478e-02 
-6.1490414608614863e-01 0.0000000000000000e+00 5.5428088839731215e-02 
-5.1994651554271121e-01 0.0000000000000000e+00 7.4575628636937966e-02 
-5.1994651633838362e-01 0.0000000000000000e+00 7.4575628520860540e-02 
-5.0067456855170744e-01 0.0000000000000000e+00 8.8892884456970633e-02 
-5.0067456862088122e-01 0.0000000000000000e+00 8.8892884572451120e-02 
-5.1698846810551746e-01 0.0000000000000000e+00 1.0921179052669688e-01 
-5.1698846781959840e-01 0.0000000000000000e+00 1.0921179054936378e-01 
-6.1119417102320195e-01 0.0000000000000000e+00 1.5974351578952428e-01 
-6.1119417130610176e-01 0.0000000000000000e+00 1.5974351585894409e-01 
-5.0674152587085208e-01 0.0000000000000000e+00 1.5575390037739928e-01 
-5.0674152616356127e-01 0.0000000000000000e+00 1.5575390030817637e-01 
-4.8618068232934442e-01 0.0000000000000000e+00 1.6242412526790448e-01 
-4.8618068204074349e-01 0.0000000000000000e+00 1.6242412536010575e-01 
-4.9683450806760698e-01 0.0000000000000000e+00 1.7904946297099308e-01 
-4.9683450835939180e-01 0.0000000000000000e+00 1.7904946294772542e-01 
-5.7760037430467559e-01 0.0000000000000000e+00 2.2874254675021397e-01 
-5.7760037416211751e-01 0.0000000000000000e+00 2.2874254677271716e-01 
-4.7289108255773282e-01 0.0000000000000000e+00 2.0179206787655640e-01 
-4.7289108306473637e-01 0.0000000000000000e+00 2.0179206785363529e-01 
-4.4978228816665505e-01 0.0000000000000000e+00 1.9914482086874596e-01 
-4.4978228838278761e-01 0.0000000000000000e+00 1.9914482070706147e-01 
-4.5329600094437428e-01 0.0000000000000000e+00 2.0770135804780493e-01 
-4.5329600087117117e-01 0.0000000000000000e+00 2.0770135811663246e-01 
-5.1708340546486242e-01 0.0000000000000000e+00 2.4583388236606415e-01 
-5.1708340495748606e-01 0.0000000000000000e+00 2.4583388243512710e-01 
-4.1633546959906192e-01 0.0000000000000000e+00 2.0389660411789154e-01 
-4.1633546937845578e-01 0.0000000000000000e+00 2.0389660407161081e-01 
-3.9240976306403597e-01 0.0000000000000000e+00 1.9569270553654025e-01 
-3.9240976327670457e-01 0.0000000000000000e+00 1.9569270553727119e-01 
-3.9189186620771288e-01 0.0000000000000000e+00 1.9858920998741300e-01 
-3.9189186635115220e-01 0.0000000000000000e+00 1.9858920991800610e-01 
-4.3619413215833980e-01 0.0000000000000000e+00 2.2772873963483056e-01 
-4.3619413200984258e-01 0.0000000000000000e+00 2.2772873963453971e-01 
-3.9030353777635818e-01 0.0000000000000000e+00 1.9655627200841480e-01 
-3.9030353748490754e-01 0.0000000000000000e+00 1.9655627214696306e-01 
-7.0071140890146294e-02 0.0000000000000000e+00 -1.3822831093081669e-01 
-2.0546102047315407e-01 0.0000000000000000e+00 -1.7227167577500674e-02 
-7.0071140887885880e-02 0.0000000000000000e+00 -1.3822831090814869e-01 
-2.0546102054570842e-01 0.0000000000000000e+00 -1.7227167648376607e-02 
5.3689975458378614e-01 0.0000000000000000e+00 -2.0546938345754218e-02 
1.4843246809636468e+00 0.0000000000000000e+00 -5.3340703580654208e-02 
5.3689975487139552e-01 0.0000000000000000e+00 -2.0546938207156959e-02 
1.4843246806746246e+00 0.0000000000000000e+00 -5.3340703441446702e-02 
1.5258540153249822e+00 0.0000000000000000e+00 -1.3681641651402932e-01 
1.5258540151797950e+00 0.0000000000000000e+00 -1.3681641653544521e-01 
1.3243007266708300e+00 0.0000000000000000e+00 -1.8674874948414516e-01 
1.3243007267432578e+00 0.0000000000000000e+00 -1.8674874946057229e-01 
1.2967131292527398e+00 0.0000000000000000e+00 -2.2791659966009511e-01 
1.2967131293952021e+00 0.0000000000000000e+00 -2.2791659966032937e-01 
1.2906670194925265e+00 0.0000000000000000e+00 -2.7158452149616719e-01 
1.2906670197098511e+00 0.0000000000000000e+00 -2.7158452151942075e-01 
1.4586063749222562e+00 0.0000000000000000e+00 -3.7866833671719641e-01 
1.4586063749246672e+00 0.0000000000000000e+00 -3.7866833671698119e-01 
1.2088567727031367e+00 0.0000000000000000e+00 -3.6760872084997864e-01 
1.2088567725589838e+00 0.0000000000000000e+00 -3.6760872071115241e-01 
1.1652136859807556e+00 0.0000000000000000e+00 -3.8543994730266146e-01 
1.1652136859810049e+00 0.0000000000000000e+00 -3.8543994727954878e-01 
1.1388112548597362e+00 0.0000000000000000e+00 -4.0769984475581583e-01 
1.1388112552213863e+00 0.0000000000000000e+00 -4.0769984468651993e-01 
1.2624780164579568e+00 0.0000000000000000e+00 -4.9588493606267109e-01 
1.2624780164575296e+00 0.0000000000000000e+00 -4.9588493603957262e-01 
1.0325730586878390e+00 0.0000000000000000e+00 -4.3599702022633369e-01 
1.0325730588318218e+00 0.0000000000000000e+00 -4.3599702027229637e-01 
9.8879979875371116e-01 0.0000000000000000e+00 -4.3315500687885417e-01 
9.8879979889843950e-01 0.0000000000000000e+00 -4.3315500687847402e-01 
9.6132499003884930e-01 0.0000000000000000e+00 -4.3629358571356036e-01 
9.6132499011085548e-01 0.0000000000000000e+00 -4.3629358568992682e-01 
1.0606859184149167e+00 0.0000000000000000e+00 -4.9891962503304133e-01 
1.0606859185585114e+00 0.0000000000000000e+00 -4.9891962501040332e-01 
8.6025704316498586e-01 0.0000000000000000e+00 -4.1611555605068001e-01 
8.6025704302036299e-01 0.0000000000000000e+00 -4.1611555602758310e-01 
8.1246008095001687e-01 0.0000000000000000e+00 -3.9959082137851276e-01 
8.1246008094856725e-01 0.0000000000000000e+00 -3.9959082137847957e-01 
7.7840599512432418e-01 0.0000000000000000e+00 -3.8949476375343695e-01 
7.7840599505238284e-01 0.0000000000000000e+00 -3.8949476375351710e-01 
8.1609930674739928e-01 0.0000000000000000e+00 -4.1558522481118948e-01 
8.1609930667496233e-01 0.0000000000000000e+00 -4.1558522478785920e-01 
6.5963188730889399e-01 0.0000000000000000e+00 -3.4081807378217366e-01 
6.5963188738183143e-01 0.0000000000000000e+00 -3.4081807378217799e-01 
2.6476046484599386e-01 0.0000000000000000e+00 -1.0590111168138606e-01 
2.6476046484600596e-01 0.0000000000000000e+00 -1.0590111168138605e-01 

VECTORS Displacements0 float
6.9356603593235591e-310 0.0000000000000000e+00 0.0000000000000000e+00 
1.3458853543634830e-03 0.0000000000000000e+00 -2.1819987344502355e-03 
0.0000000000000000e+00 0.0000000000000000e+00 0.0000000000000000e+00 
1.3458853540322751e-03 0.0000000000000000e+00 -2.1819987342397325e-03 
4.5373984138568158e-03 0.0000000000000000e+00 -4.5556015275546070e-03 
4.5373984131912553e-03 0.0000000000000000e+00 -4.5556015273153280e-03 
9.9593866565605305e-03 0.0000000000000000e+00 -7.0261643646961159e-03 
9.9593866557354891e-03 0.0000000000000000e+00 -7.0261643645900575e-03 
1.7443972475155119e-02 0.0000000000000000e+00 -9.7049350132779599e-03 
1.7443972474530518e-02 0.0000000000000000e+00 -9.7049350133145435e-03 
2.6936499593898305e-02 0.0000000000000000e+00 -1.2653917863817064e-02 
2.6936499593510365e-02 0.0000000000000000e+00 -1.2653917863940982e-02 
3.8351243753075651e-02 0.0000000000000000e+00 -1.5919422493848503e-02 
3.8351243752926589e-02 0.0000000000000000e+00 -1.5919422493966530e-02 
5.1589285412700442e-02 0.0000000000000000e+00 -1.9522335654202583e-02 
5.1589285412689367e-02 0.0000000000000000e+00 -1.9522335654246239e-02 
6.6505526889369351e-02 0.0000000000000000e+00 -2.3454722018669997e-02 
6.6505526889399189e-02 0.0000000000000000e+00 -2.3454722018591556e-02 
8.2924888965739005e-02 0.0000000000000000e+00 -2.7692486213666861e-02 
8.2924888965630064e-02 0.0000000000000000e+00 -2.7692486213447779e-02 
1.0065222045757423e-01 0.0000000000000000e+00 -3.2204569424366350e-02 
1.0065222045725286e-01 0.0000000000000000e+00 -3.2204569424031701e-02 
1.1950157173898834e-01 0.0000000000000000e+00 -3.6959110743544583e-02 
1.1950157173847926e-01 0.0000000000000000e+00 -3.6959110743183976e-02 
1.3928794823674806e-01 0.0000000000000000e+00 -4.1912074448207812e-02 
1.3928794823611138e-01 0.0000000000000000e+00 -4.1912074447896755e-02 
1.5982972167093920e-01 0.0000000000000000e+00 -4.7013891554118122e-02 
1.5982972167030388e-01 0.0000000000000000e+00 -4.7013891553928870e-02 
1.8094269993827980e-01 0.0000000000000000e+00 -5.2228594780221377e-02 
1.8094269993776388e-01 0.0000000000000000e+00 -5.2228594780188341e-02 
2.0248650302320043e-01 0.0000000000000000e+00 -5.7565195109555378e-02 
2.0248650302286067e-01 0.0000000000000000e+00 -5.7565195109682256e-02 
2.2440434946055035e-01 0.0000000000000000e+00 -6.3066976813802939e-02 
2.2440434946044174e-01 0.0000000000000000e+00 -6.3066976814082645e-02 
2.4672872326611073e-01 0.0000000000000000e+00 -6.8763140034722350e-02 
2.4672872326629938e-01 0.0000000000000000e+00 -6.8763140035070627e-02 
2.6948247813065107e-01 0.0000000000000000e+00 -7.4605625171003873e-02 
2.6948247813102622e-01 0.0000000000000000e+00 -7.4605625171249204e-02 
2.9257712142827857e-01 0.0000000000000000e+00 -8.0473474833330824e-02 
2.9257712142859488e-01 0.0000000000000000e+00 -8.0473474833359759e-02 
3.2150399786803396e-01 0.0000000000000000e+00 -6.3050119679987873e-02 
3.1579532642668862e-01 0.0000000000000000e+00 -8.6255757448591194e-02 
3.2150399786797912e-01 0.0000000000000000e+00 -6.3050119680072222e-02 
3.1579532642676378e-01 0.0000000000000000e+00 -8.6255757448447434e-02 
0.0000000000000000e+00 0.0000000000000000e+00 0.0000000000000000e+00 
1.5686833090460561e-03 0.0000000000000000e+00 2.2118144917794339e-03 
0.0000000000000000e+00 0.0000000000000000e+00 0.0000000000000000e+00 
1.5686833087011269e-03 0.0000000000000000e+00 2.2118144917098021e-03 
5.0798756312273700e-03 0.0000000000000000e+00 4.4063669833389052e-03 
5.0798756305916737e-03 0.0000000000000000e+00 4.4063669833446870e-03 
1.0981663630787081e-02 0.0000000000000000e+00 6.3114428144959173e-03 
1.0981663630055701e-02 0.0000000000000000e+00 6.3114428146695805e-03 
1.9125633996677487e-02 0.0000000000000000e+00 7.8491807570354403e-03 
1.9125633996112144e-02 0.0000000000000000e+00 7.8491807573324249e-03 
2.9421305600639429e-02 0.0000000000000000e+00 8.9197146671331339e-03 
2.9421305600343044e-02 0.0000000000000000e+00 8.9197146674354095e-03 
4.1754601104937339e-02 0.0000000000000000e+00 9.4359481440632227e-03 
4.1754601104909070e-02 0.0000000000000000e+00 9.4359481442615935e-03 
5.5968572653985568e-02 0.0000000000000000e+00 9.3234076937666038e-03 
5.5968572654025245e-02 0.0000000000000000e+00 9.3234076938449179e-03 
7.1882444301991061e-02 0.0000000000000000e+00 8.5269482510118323e-03 
7.1882444301963194e-02 0.0000000000000000e+00 8.5269482509895567e-03 
8.9267827865921370e-02 0.0000000000000000e+00 7.0328783082714355e-03 
8.9267827865742874e-02 0.0000000000000000e+00 7.0328783082192949e-03 
1.0789473192722034e-01 0.0000000000000000e+00 4.8645849607657004e-03 
1.0789473192680055e-01 0.0000000000000000e+00 4.8645849607840590e-03 
1.2753851607722011e-01 0.0000000000000000e+00 2.0747712991877371e-03 
1.2753851607663971e-01 0.0000000000000000e+00 2.0747712993290858e-03 
1.4800972016056896e-01 0.0000000000000000e+00 -1.2786498829037859e-03 
1.4800972015993222e-01 0.0000000000000000e+00 -1.2786498826183083e-03 
1.6911516956060582e-01 0.0000000000000000e+00 -5.1167840333299595e-03 
1.6911516956006273e-01 0.0000000000000000e+00 -5.1167840329566887e-03 
1.9068885569965646e-01 0.0000000000000000e+00 -9.3382651094501556e-03 
1.9068885569927982e-01 0.0000000000000000e+00 -9.3382651090711116e-03 
2.1262351525193632e-01 0.0000000000000000e+00 -1.3832453199070118e-02 
2.1262351525177045e-01 0.0000000000000000e+00 -1.3832453198752741e-02 
2.3492206792716541e-01 0.0000000000000000e+00 -1.8541295132097419e-02 
2.3492206792727391e-01 0.0000000000000000e+00 -1.8541295131924217e-02 
2.5761917813770147e-01 0.0000000000000000e+00 -2.3478223331330206e-02 
2.5761917813801966e-01 0.0000000000000000e+00 -2.3478223331383281e-02 
2.8068543734546947e-01 0.0000000000000000e+00 -2.8695693896385120e-02 
2.8068543734579077e-01 0.0000000000000000e+00 -2.8695693896663130e-02 
3.0395869674894099e-01 0.0000000000000000e+00 -3.4191570531759773e-02 
3.0395869674904691e-01 0.0000000000000000e+00 -3.4191570532142050e-02 
3.2722783883777434e-01 0.0000000000000000e+00 -3.9855371105863867e-02 
3.2722783883756451e-01 0.0000000000000000e+00 -3.9855371106185526e-02 

