# vtk DataFile Version 2.0

ASCII

DATASET UNSTRUCTURED_GRID

POINTS 86 double 

5.0000000000000003e-02  0.0000000000000000e+00  0.0000000000000000e+00
5.0000000000000003e-02  0.0000000000000000e+00  5.0000000000000003e-02
5.0000000000000003e-02  2.9999999999999999e-01  0.0000000000000000e+00
5.0000000000000003e-02  2.9999999999999999e-01  5.0000000000000003e-02
5.0000000000000003e-02  0.0000000000000000e+00  1.0000000000000001e-01
5.0000000000000003e-02  2.9999999999999999e-01  1.0000000000000001e-01
5.0000000000000003e-02  0.0000000000000000e+00  1.4999999999999999e-01
5.0000000000000003e-02  2.9999999999999999e-01  1.4999999999999999e-01
5.0000000000000003e-02  0.0000000000000000e+00  2.0000000000000001e-01
5.0000000000000003e-02  2.9999999999999999e-01  2.0000000000000001e-01
5.0000000000000003e-02  0.0000000000000000e+00  2.5000000000000000e-01
5.0000000000000003e-02  2.9999999999999999e-01  2.5000000000000000e-01
5.0000000000000003e-02  0.0000000000000000e+00  2.9999999999999999e-01
5.0000000000000003e-02  2.9999999999999999e-01  2.9999999999999999e-01
5.0000000000000003e-02  0.0000000000000000e+00  3.4999999999999998e-01
5.0000000000000003e-02  2.9999999999999999e-01  3.4999999999999998e-01
5.0000000000000003e-02  0.0000000000000000e+00  4.0000000000000002e-01
5.0000000000000003e-02  2.9999999999999999e-01  4.0000000000000002e-01
5.0000000000000003e-02  0.0000000000000000e+00  4.5000000000000001e-01
5.0000000000000003e-02  2.9999999999999999e-01  4.5000000000000001e-01
5.0000000000000003e-02  0.0000000000000000e+00  5.0000000000000000e-01
5.0000000000000003e-02  2.9999999999999999e-01  5.0000000000000000e-01
5.0000000000000003e-02  0.0000000000000000e+00  5.5000000000000004e-01
5.0000000000000003e-02  2.9999999999999999e-01  5.5000000000000004e-01
5.0000000000000003e-02  0.0000000000000000e+00  5.9999999999999998e-01
5.0000000000000003e-02  2.9999999999999999e-01  5.9999999999999998e-01
5.0000000000000003e-02  0.0000000000000000e+00  6.5000000000000002e-01
5.0000000000000003e-02  2.9999999999999999e-01  6.5000000000000002e-01
5.0000000000000003e-02  0.0000000000000000e+00  6.9999999999999996e-01
5.0000000000000003e-02  2.9999999999999999e-01  6.9999999999999996e-01
5.0000000000000003e-02  0.0000000000000000e+00  7.5000000000000000e-01
5.0000000000000003e-02  2.9999999999999999e-01  7.5000000000000000e-01
5.0000000000000003e-02  0.0000000000000000e+00  8.0000000000000004e-01
5.0000000000000003e-02  2.9999999999999999e-01  8.0000000000000004e-01
5.0000000000000003e-02  0.0000000000000000e+00  8.4999999999999998e-01
5.0000000000000003e-02  2.9999999999999999e-01  8.4999999999999998e-01
5.0000000000000003e-02  0.0000000000000000e+00  9.0000000000000002e-01
5.0000000000000003e-02  2.9999999999999999e-01  9.0000000000000002e-01
5.0000000000000003e-02  0.0000000000000000e+00  9.4999999999999996e-01
5.0000000000000003e-02  2.9999999999999999e-01  9.4999999999999996e-01
0.0000000000000000e+00  0.0000000000000000e+00  1.0000000000000000e+00
5.0000000000000003e-02  0.0000000000000000e+00  1.0000000000000000e+00
0.0000000000000000e+00  2.9999999999999999e-01  1.0000000000000000e+00
5.0000000000000003e-02  2.9999999999999999e-01  1.0000000000000000e+00
-5.0000000000000003e-02  0.0000000000000000e+00  0.0000000000000000e+00
-5.0000000000000003e-02  0.0000000000000000e+00  5.0000000000000003e-02
-5.0000000000000003e-02  2.9999999999999999e-01  0.0000000000000000e+00
-5.0000000000000003e-02  2.9999999999999999e-01  5.0000000000000003e-02
-5.0000000000000003e-02  0.0000000000000000e+00  1.0000000000000001e-01
-5.0000000000000003e-02  2.9999999999999999e-01  1.0000000000000001e-01
-5.0000000000000003e-02  0.0000000000000000e+00  1.4999999999999999e-01
-5.0000000000000003e-02  2.9999999999999999e-01  1.4999999999999999e-01
-5.0000000000000003e-02  0.0000000000000000e+00  2.0000000000000001e-01
-5.0000000000000003e-02  2.9999999999999999e-01  2.0000000000000001e-01
-5.0000000000000003e-02  0.0000000000000000e+00  2.5000000000000000e-01
-5.0000000000000003e-02  2.9999999999999999e-01  2.5000000000000000e-01
-5.0000000000000003e-02  0.0000000000000000e+00  2.9999999999999999e-01
-5.0000000000000003e-02  2.9999999999999999e-01  2.9999999999999999e-01
-5.0000000000000003e-02  0.0000000000000000e+00  3.4999999999999998e-01
-5.0000000000000003e-02  2.9999999999999999e-01  3.4999999999999998e-01
-5.0000000000000003e-02  0.0000000000000000e+00  4.0000000000000002e-01
-5.0000000000000003e-02  2.9999999999999999e-01  4.0000000000000002e-01
-5.0000000000000003e-02  0.0000000000000000e+00  4.5000000000000001e-01
-5.0000000000000003e-02  2.9999999999999999e-01  4.5000000000000001e-01
-5.0000000000000003e-02  0.0000000000000000e+00  5.0000000000000000e-01
-5.0000000000000003e-02  2.9999999999999999e-01  5.0000000000000000e-01
-5.0000000000000003e-02  0.0000000000000000e+00  5.5000000000000004e-01
-5.0000000000000003e-02  2.9999999999999999e-01  5.5000000000000004e-01
-5.0000000000000003e-02  0.0000000000000000e+00  5.9999999999999998e-01
-5.0000000000000003e-02  2.9999999999999999e-01  5.9999999999999998e-01
-5.0000000000000003e-02  0.0000000000000000e+00  6.5000000000000002e-01
-5.0000000000000003e-02  2.9999999999999999e-01  6.5000000000000002e-01
-5.0000000000000003e-02  0.0000000000000000e+00  6.9999999999999996e-01
-5.0000000000000003e-02  2.9999999999999999e-01  6.9999999999999996e-01
-5.0000000000000003e-02  0.0000000000000000e+00  7.5000000000000000e-01
-5.0000000000000003e-02  2.9999999999999999e-01  7.5000000000000000e-01
-5.0000000000000003e-02  0.0000000000000000e+00  8.0000000000000004e-01
-5.0000000000000003e-02  2.9999999999999999e-01  8.0000000000000004e-01
-5.0000000000000003e-02  0.0000000000000000e+00  8.4999999999999998e-01
-5.0000000000000003e-02  2.9999999999999999e-01  8.4999999999999998e-01
-5.0000000000000003e-02  0.0000000000000000e+00  9.0000000000000002e-01
-5.0000000000000003e-02  2.9999999999999999e-01  9.0000000000000002e-01
-5.0000000000000003e-02  0.0000000000000000e+00  9.4999999999999996e-01
-5.0000000000000003e-02  2.9999999999999999e-01  9.4999999999999996e-01
-5.0000000000000003e-02  0.0000000000000000e+00  1.0000000000000000e+00
-5.0000000000000003e-02  2.9999999999999999e-01  1.0000000000000000e+00

CELLS 0 0


CELL_TYPES 0


POINT_DATA 86

VECTORS VertexNormals double

0.0000000000000000e+00 0.0000000000000000e+00 0.0000000000000000e+00 
0.0000000000000000e+00 0.0000000000000000e+00 0.0000000000000000e+00 
0.0000000000000000e+00 0.0000000000000000e+00 0.0000000000000000e+00 
0.0000000000000000e+00 0.0000000000000000e+00 0.0000000000000000e+00 
0.0000000000000000e+00 0.0000000000000000e+00 0.0000000000000000e+00 
0.0000000000000000e+00 0.0000000000000000e+00 0.0000000000000000e+00 
0.0000000000000000e+00 0.0000000000000000e+00 0.0000000000000000e+00 
0.0000000000000000e+00 0.0000000000000000e+00 0.0000000000000000e+00 
0.0000000000000000e+00 0.0000000000000000e+00 0.0000000000000000e+00 
0.0000000000000000e+00 0.0000000000000000e+00 0.0000000000000000e+00 
0.0000000000000000e+00 0.0000000000000000e+00 0.0000000000000000e+00 
0.0000000000000000e+00 0.0000000000000000e+00 0.0000000000000000e+00 
0.0000000000000000e+00 0.0000000000000000e+00 0.0000000000000000e+00 
0.0000000000000000e+00 0.0000000000000000e+00 0.0000000000000000e+00 
0.0000000000000000e+00 0.0000000000000000e+00 0.0000000000000000e+00 
0.0000000000000000e+00 0.0000000000000000e+00 0.0000000000000000e+00 
0.0000000000000000e+00 0.0000000000000000e+00 0.0000000000000000e+00 
0.0000000000000000e+00 0.0000000000000000e+00 0.0000000000000000e+00 
0.0000000000000000e+00 0.0000000000000000e+00 0.0000000000000000e+00 
0.0000000000000000e+00 0.0000000000000000e+00 0.0000000000000000e+00 
0.0000000000000000e+00 0.0000000000000000e+00 0.0000000000000000e+00 
0.0000000000000000e+00 0.0000000000000000e+00 0.0000000000000000e+00 
0.0000000000000000e+00 0.0000000000000000e+00 0.0000000000000000e+00 
0.0000000000000000e+00 0.0000000000000000e+00 0.0000000000000000e+00 
0.0000000000000000e+00 0.0000000000000000e+00 0.0000000000000000e+00 
0.0000000000000000e+00 0.0000000000000000e+00 0.0000000000000000e+00 
0.0000000000000000e+00 0.0000000000000000e+00 0.0000000000000000e+00 
0.0000000000000000e+00 0.0000000000000000e+00 0.0000000000000000e+00 
0.0000000000000000e+00 0.0000000000000000e+00 0.0000000000000000e+00 
0.0000000000000000e+00 0.0000000000000000e+00 0.0000000000000000e+00 
0.0000000000000000e+00 0.0000000000000000e+00 0.0000000000000000e+00 
0.0000000000000000e+00 0.0000000000000000e+00 0.0000000000000000e+00 
0.0000000000000000e+00 0.0000000000000000e+00 0.0000000000000000e+00 
0.0000000000000000e+00 0.0000000000000000e+00 0.0000000000000000e+00 
0.0000000000000000e+00 0.0000000000000000e+00 0.0000000000000000e+00 
0.0000000000000000e+00 0.0000000000000000e+00 0.0000000000000000e+00 
0.0000000000000000e+00 0.0000000000000000e+00 0.0000000000000000e+00 
0.0000000000000000e+00 0.0000000000000000e+00 0.0000000000000000e+00 
0.0000000000000000e+00 0.0000000000000000e+00 0.0000000000000000e+00 
0.0000000000000000e+00 0.0000000000000000e+00 0.0000000000000000e+00 
0.0000000000000000e+00 0.0000000000000000e+00 0.0000000000000000e+00 
0.0000000000000000e+00 0.0000000000000000e+00 0.0000000000000000e+00 
0.0000000000000000e+00 0.0000000000000000e+00 0.0000000000000000e+00 
0.0000000000000000e+00 0.0000000000000000e+00 0.0000000000000000e+00 
0.0000000000000000e+00 0.0000000000000000e+00 0.0000000000000000e+00 
0.0000000000000000e+00 0.0000000000000000e+00 0.0000000000000000e+00 
0.0000000000000000e+00 0.0000000000000000e+00 0.0000000000000000e+00 
0.0000000000000000e+00 0.0000000000000000e+00 0.0000000000000000e+00 
0.0000000000000000e+00 0.0000000000000000e+00 0.0000000000000000e+00 
0.0000000000000000e+00 0.0000000000000000e+00 0.0000000000000000e+00 
0.0000000000000000e+00 0.0000000000000000e+00 0.0000000000000000e+00 
0.0000000000000000e+00 0.0000000000000000e+00 0.0000000000000000e+00 
0.0000000000000000e+00 0.0000000000000000e+00 0.0000000000000000e+00 
0.0000000000000000e+00 0.0000000000000000e+00 0.0000000000000000e+00 
0.0000000000000000e+00 0.0000000000000000e+00 0.0000000000000000e+00 
0.0000000000000000e+00 0.0000000000000000e+00 0.0000000000000000e+00 
0.0000000000000000e+00 0.0000000000000000e+00 0.0000000000000000e+00 
0.0000000000000000e+00 0.0000000000000000e+00 0.0000000000000000e+00 
0.0000000000000000e+00 0.0000000000000000e+00 0.0000000000000000e+00 
0.0000000000000000e+00 0.0000000000000000e+00 0.0000000000000000e+00 
0.0000000000000000e+00 0.0000000000000000e+00 0.0000000000000000e+00 
0.0000000000000000e+00 0.0000000000000000e+00 0.0000000000000000e+00 
0.0000000000000000e+00 0.0000000000000000e+00 0.0000000000000000e+00 
0.0000000000000000e+00 0.0000000000000000e+00 0.0000000000000000e+00 
0.0000000000000000e+00 0.0000000000000000e+00 0.0000000000000000e+00 
0.0000000000000000e+00 0.0000000000000000e+00 0.0000000000000000e+00 
0.0000000000000000e+00 0.0000000000000000e+00 0.0000000000000000e+00 
0.0000000000000000e+00 0.0000000000000000e+00 0.0000000000000000e+00 
0.0000000000000000e+00 0.0000000000000000e+00 0.0000000000000000e+00 
0.0000000000000000e+00 0.0000000000000000e+00 0.0000000000000000e+00 
0.0000000000000000e+00 0.0000000000000000e+00 0.0000000000000000e+00 
0.0000000000000000e+00 0.0000000000000000e+00 0.0000000000000000e+00 
0.0000000000000000e+00 0.0000000000000000e+00 0.0000000000000000e+00 
0.0000000000000000e+00 0.0000000000000000e+00 0.0000000000000000e+00 
0.0000000000000000e+00 0.0000000000000000e+00 0.0000000000000000e+00 
0.0000000000000000e+00 0.0000000000000000e+00 0.0000000000000000e+00 
0.0000000000000000e+00 0.0000000000000000e+00 0.0000000000000000e+00 
0.0000000000000000e+00 0.0000000000000000e+00 0.0000000000000000e+00 
0.0000000000000000e+00 0.0000000000000000e+00 0.0000000000000000e+00 
0.0000000000000000e+00 0.0000000000000000e+00 0.0000000000000000e+00 
0.0000000000000000e+00 0.0000000000000000e+00 0.0000000000000000e+00 
0.0000000000000000e+00 0.0000000000000000e+00 0.0000000000000000e+00 
0.0000000000000000e+00 0.0000000000000000e+00 0.0000000000000000e+00 
0.0000000000000000e+00 0.0000000000000000e+00 0.0000000000000000e+00 
0.0000000000000000e+00 0.0000000000000000e+00 0.0000000000000000e+00 
0.0000000000000000e+00 0.0000000000000000e+00 0.0000000000000000e+00 

VECTORS Forces0 double
-2.9585065339831484e-01 0.0000000000000000e+00 1.3252997493559002e-02 
-6.4082576392927182e-01 0.0000000000000000e+00 4.1164313845060557e-02 
-2.9585065339795491e-01 0.0000000000000000e+00 1.3252997376422727e-02 
-6.4082576400156666e-01 0.0000000000000000e+00 4.1164313785614901e-02 
-7.3143549666927565e-01 0.0000000000000000e+00 9.7098292909829992e-02 
-7.3143549659584484e-01 0.0000000000000000e+00 9.7098292711368384e-02 
-6.2090665774070430e-01 0.0000000000000000e+00 1.2348439991191572e-01 
-6.2090665752692864e-01 0.0000000000000000e+00 1.2348439976800099e-01 
-6.0103618847013296e-01 0.0000000000000000e+00 1.4181909766327802e-01 
-6.0103618882731580e-01 0.0000000000000000e+00 1.4181909772204648e-01 
-6.2089475726848964e-01 0.0000000000000000e+00 1.6867723297672210e-01 
-6.2089475719986309e-01 0.0000000000000000e+00 1.6867723306158702e-01 
-7.3530576935544434e-01 0.0000000000000000e+00 2.3491448540919516e-01 
-7.3530576900299705e-01 0.0000000000000000e+00 2.3491448515160337e-01 
-6.1388633828432060e-01 0.0000000000000000e+00 2.2461359893359342e-01 
-6.1388633849572916e-01 0.0000000000000000e+00 2.2461359887627880e-01 
-5.9339315418925997e-01 0.0000000000000000e+00 2.3480937529960802e-01 
-5.9339315425728467e-01 0.0000000000000000e+00 2.3480937549979131e-01 
-6.0759137729439527e-01 0.0000000000000000e+00 2.5834216610836297e-01 
-6.0759137729142065e-01 0.0000000000000000e+00 2.5834216602249960e-01 
-7.1249219296569466e-01 0.0000000000000000e+00 3.3131652764200958e-01 
-7.1249219253959306e-01 0.0000000000000000e+00 3.3131652766967284e-01 
-5.9443858445036135e-01 0.0000000000000000e+00 2.9487406910404934e-01 
-5.9443858459355858e-01 0.0000000000000000e+00 2.9487406910445751e-01 
-5.7471084196235001e-01 0.0000000000000000e+00 2.9407577161667819e-01 
-5.7471084182032162e-01 0.0000000000000000e+00 2.9407577164467741e-01 
-5.8499386154775324e-01 0.0000000000000000e+00 3.0787276469142771e-01 
-5.8499386161970190e-01 0.0000000000000000e+00 3.0787276460553986e-01 
-6.8132392298342404e-01 0.0000000000000000e+00 3.6880279416541273e-01 
-6.8132392291241128e-01 0.0000000000000000e+00 3.6880279413727518e-01 
-5.6714357571324669e-01 0.0000000000000000e+00 3.1163284358482507e-01 
-5.6714357564139228e-01 0.0000000000000000e+00 3.1163284355730564e-01 
-5.4738865851303642e-01 0.0000000000000000e+00 3.0238283691327822e-01 
-5.4738865836473249e-01 0.0000000000000000e+00 3.0238283697147983e-01 
-5.5517087012300725e-01 0.0000000000000000e+00 3.0752961837494919e-01 
-5.5517087004820653e-01 0.0000000000000000e+00 3.0752961834745907e-01 
-6.3041802783894796e-01 0.0000000000000000e+00 3.5357701679792991e-01 
-6.3041802769784661e-01 0.0000000000000000e+00 3.5357701676867975e-01 
-5.8165006846846090e-01 0.0000000000000000e+00 3.1248896548112043e-01 
-5.8165006860678681e-01 0.0000000000000000e+00 3.1248896545293181e-01 
-2.0557164716010862e-01 0.0000000000000000e+00 -3.7189631896627684e-01 
-3.2175542481081548e-01 0.0000000000000000e+00 -4.6085383091926148e-02 
-2.0557164709021114e-01 0.0000000000000000e+00 -3.7189631896588915e-01 
-3.2175542474326557e-01 0.0000000000000000e+00 -4.6085382978115423e-02 
6.1017401397165905e-01 0.0000000000000000e+00 -3.7113832185281477e-02 
1.6867264648060512e+00 0.0000000000000000e+00 -9.4917041476943437e-02 
6.1017401390037418e-01 0.0000000000000000e+00 -3.7113832211037465e-02 
1.6867264647352977e+00 0.0000000000000000e+00 -9.4917041505331604e-02 
1.7179183054917355e+00 0.0000000000000000e+00 -2.2751423408470806e-01 
1.7179183058476175e+00 0.0000000000000000e+00 -2.2751423399946388e-01 
1.4743035581077535e+00 0.0000000000000000e+00 -2.8829331023560517e-01 
1.4743035586041280e+00 0.0000000000000000e+00 -2.8829331017881521e-01 
1.4341094929749740e+00 0.0000000000000000e+00 -3.3478908369519278e-01 
1.4341094928340266e+00 0.0000000000000000e+00 -3.3478908363789883e-01 
1.4196929587229441e+00 0.0000000000000000e+00 -3.8430013345692909e-01 
1.4196929587232281e+00 0.0000000000000000e+00 -3.8430013348573805e-01 
1.5996736439457764e+00 0.0000000000000000e+00 -5.0875414694608234e-01 
1.5996736438729902e+00 0.0000000000000000e+00 -5.0875414697490573e-01 
1.3251881951602813e+00 0.0000000000000000e+00 -4.8130016214003302e-01 
1.3251881950194035e+00 0.0000000000000000e+00 -4.8130016219695571e-01 
1.2762335603099866e+00 0.0000000000000000e+00 -5.0144768262440154e-01 
1.2762335603102226e+00 0.0000000000000000e+00 -5.0144768265334672e-01 
1.2479317352106116e+00 0.0000000000000000e+00 -5.2846056417290033e-01 
1.2479317350682413e+00 0.0000000000000000e+00 -5.2846056411569220e-01 
1.3851049034040586e+00 0.0000000000000000e+00 -6.4089464195896506e-01 
1.3851049034737812e+00 0.0000000000000000e+00 -6.4089464201642865e-01 
1.1371126266762188e+00 0.0000000000000000e+00 -5.6045829175322204e-01 
1.1371126266780516e+00 0.0000000000000000e+00 -5.6045829172434058e-01 
1.0927508578198299e+00 0.0000000000000000e+00 -5.5558113376542517e-01 
1.0927508579630469e+00 0.0000000000000000e+00 -5.5558113373705886e-01 
1.0686129691424653e+00 0.0000000000000000e+00 -5.5942539893541698e-01 
1.0686129689986974e+00 0.0000000000000000e+00 -5.5942539890694631e-01 
1.1902474951402968e+00 0.0000000000000000e+00 -6.4039971761935810e-01 
1.1902474949977879e+00 0.0000000000000000e+00 -6.4039971764788384e-01 
9.7587173726718857e-01 0.0000000000000000e+00 -5.3247401429137498e-01 
9.7587173726776610e-01 0.0000000000000000e+00 -5.3247401431967301e-01 
9.3198690906482529e-01 0.0000000000000000e+00 -5.1073101756711325e-01 
9.3198690892312253e-01 0.0000000000000000e+00 -5.1073101762425999e-01 
9.0695583929742407e-01 0.0000000000000000e+00 -4.9917528804337569e-01 
9.0695583929795842e-01 0.0000000000000000e+00 -4.9917528807184020e-01 
9.7902948069816476e-01 0.0000000000000000e+00 -5.3745164662540879e-01 
9.7902948076840790e-01 0.0000000000000000e+00 -5.3745164668270740e-01 
8.2137876462278181e-01 0.0000000000000000e+00 -4.6001278857686212e-01 
8.2137876462332982e-01 0.0000000000000000e+00 -4.6001278857682260e-01 
2.9037987723349301e-01 0.0000000000000000e+00 -2.2737197117457320e-01 
2.9037987730317721e-01 0.0000000000000000e+00 -2.2737197117459865e-01 

VECTORS Displacements0 double
6.9356603529378595e-310 0.0000000000000000e+00 0.0000000000000000e+00 
2.4583621162588224e-03 0.0000000000000000e+00 -3.5829638884362124e-03 
0.0000000000000000e+00 0.0000000000000000e+00 0.0000000000000000e+00 
2.4583621163467434e-03 0.0000000000000000e+00 -3.5829638885544442e-03 
7.3558127965938202e-03 0.0000000000000000e+00 -7.1505819695694183e-03 
7.3558127968792282e-03 0.0000000000000000e+00 -7.1505819697565455e-03 
1.5093357390763859e-02 0.0000000000000000e+00 -1.0598176880383336e-02 
1.5093357391229977e-02 0.0000000000000000e+00 -1.0598176880556023e-02 
2.5137839682444336e-02 0.0000000000000000e+00 -1.4133780502879528e-02 
2.5137839683065811e-02 0.0000000000000000e+00 -1.4133780502951106e-02 
3.7245638587752115e-02 0.0000000000000000e+00 -1.7898839851759003e-02 
3.7245638588412490e-02 0.0000000000000000e+00 -1.7898839851692331e-02 
5.1231779234818649e-02 0.0000000000000000e+00 -2.2007946426029240e-02 
5.1231779235319491e-02 0.0000000000000000e+00 -2.2007946425853953e-02 
6.6979663376454279e-02 0.0000000000000000e+00 -2.6528026086888468e-02 
6.6979663376681653e-02 0.0000000000000000e+00 -2.6528026086654319e-02 
8.4364957051008077e-02 0.0000000000000000e+00 -3.1465871348852058e-02 
8.4364957051056177e-02 0.0000000000000000e+00 -3.1465871348695225e-02 
1.0323589227002263e-01 0.0000000000000000e+00 -3.6780973651620884e-02 
1.0323589227008483e-01 0.0000000000000000e+00 -3.6780973651664606e-02 
1.2338893276377431e-01 0.0000000000000000e+00 -4.2405529040779447e-02 
1.2338893276404776e-01 0.0000000000000000e+00 -4.2405529041020552e-02 
1.4460439668382274e-01 0.0000000000000000e+00 -4.8281318213134965e-02 
1.4460439668433619e-01 0.0000000000000000e+00 -4.8281318213471855e-02 
1.6668006809503080e-01 0.0000000000000000e+00 -5.4367649355268395e-02 
1.6668006809570915e-01 0.0000000000000000e+00 -5.4367649355538110e-02 
1.8947107242519723e-01 0.0000000000000000e+00 -6.0632738315465985e-02 
1.8947107242579514e-01 0.0000000000000000e+00 -6.0632738315561867e-02 
2.1284908682016943e-01 0.0000000000000000e+00 -6.7022120764819684e-02 
2.1284908682058271e-01 0.0000000000000000e+00 -6.7022120764762258e-02 
2.3666933225312345e-01 0.0000000000000000e+00 -7.3465877853678987e-02 
2.3666933225337852e-01 0.0000000000000000e+00 -7.3465877853560041e-02 
2.6076316431090474e-01 0.0000000000000000e+00 -7.9905967484845491e-02 
2.6076316431102209e-01 0.0000000000000000e+00 -7.9905967484722742e-02 
2.8500833553073984e-01 0.0000000000000000e+00 -8.6331782351866573e-02 
2.8500833553078780e-01 0.0000000000000000e+00 -8.6331782351777756e-02 
3.0934909061778387e-01 0.0000000000000000e+00 -9.2756762069418672e-02 
3.0934909061780119e-01 0.0000000000000000e+00 -9.2756762069389861e-02 
3.3376625200580584e-01 0.0000000000000000e+00 -9.9183059750509769e-02 
3.3376625200583998e-01 0.0000000000000000e+00 -9.9183059750548835e-02 
3.6460728871702092e-01 0.0000000000000000e+00 -8.1142099074259177e-02 
3.5821826450498284e-01 0.0000000000000000e+00 -1.0559025591836939e-01 
3.6460728871719622e-01 0.0000000000000000e+00 -8.1142099074261329e-02 
3.5821826450511501e-01 0.0000000000000000e+00 -1.0559025591846591e-01 
0.0000000000000000e+00 0.0000000000000000e+00 0.0000000000000000e+00 
2.6987364458542257e-03 0.0000000000000000e+00 3.0977650589836697e-03 
0.0000000000000000e+00 0.0000000000000000e+00 0.0000000000000000e+00 
2.6987364459678809e-03 0.0000000000000000e+00 3.0977650590869321e-03 
8.2352836551773615e-03 0.0000000000000000e+00 5.7725882440839054e-03 
8.2352836555186180e-03 0.0000000000000000e+00 5.7725882442292821e-03 
1.6789303882904144e-02 0.0000000000000000e+00 7.6376570007719051e-03 
1.6789303883443813e-02 0.0000000000000000e+00 7.6376570008654214e-03 
2.7802899102927724e-02 0.0000000000000000e+00 8.7292013231964182e-03 
2.7802899103589063e-02 0.0000000000000000e+00 8.7292013231740767e-03 
4.0967536424176450e-02 0.0000000000000000e+00 9.0733849387262481e-03 
4.0967536424744808e-02 0.0000000000000000e+00 9.0733849386028607e-03 
5.6082829670348291e-02 0.0000000000000000e+00 8.6947140917491023e-03 
5.6082829670709967e-02 0.0000000000000000e+00 8.6947140915984624e-03 
7.2991115963246783e-02 0.0000000000000000e+00 7.5844395344858463e-03 
7.2991115963352074e-02 0.0000000000000000e+00 7.5844395344348923e-03 
9.1542050584916879e-02 0.0000000000000000e+00 5.7081239841368552e-03 
9.1542050584944745e-02 0.0000000000000000e+00 5.7081239842362939e-03 
1.1152121838845522e-01 0.0000000000000000e+00 3.0521792033884761e-03 
1.1152121838859404e-01 0.0000000000000000e+00 3.0521792035709278e-03 
1.3267730648938225e-01 0.0000000000000000e+00 -3.4971842116544491e-04 
1.3267730648980833e-01 0.0000000000000000e+00 -3.4971842104978456e-04 
1.5475271586398237e-01 0.0000000000000000e+00 -4.4065216131393302e-03 
1.5475271586463640e-01 0.0000000000000000e+00 -4.4065216132114469e-03 
1.7756388908512324e-01 0.0000000000000000e+00 -9.0208627189460964e-03 
1.7756388908577664e-01 0.0000000000000000e+00 -9.0208627191916118e-03 
2.0096596228697469e-01 0.0000000000000000e+00 -1.4110605975344836e-02 
2.0096596228745064e-01 0.0000000000000000e+00 -1.4110605975649577e-02 
2.2482389058537450e-01 0.0000000000000000e+00 -1.9613531283041549e-02 
2.2482389058562266e-01 0.0000000000000000e+00 -1.9613531283266941e-02 
2.4897144773415711e-01 0.0000000000000000e+00 -2.5446396503611968e-02 
2.4897144773426361e-01 0.0000000000000000e+00 -2.5446396503728316e-02 
2.7327353326194509e-01 0.0000000000000000e+00 -3.1509925839362116e-02 
2.7327353326197323e-01 0.0000000000000000e+00 -3.1509925839396498e-02 
2.9764750329195511e-01 0.0000000000000000e+00 -3.7706446353069537e-02 
2.9764750329194467e-01 0.0000000000000000e+00 -3.7706446353022657e-02 
3.2207533084910722e-01 0.0000000000000000e+00 -4.3983735728409530e-02 
3.2207533084915091e-01 0.0000000000000000e+00 -4.3983735728312198e-02 
3.4653833426607628e-01 0.0000000000000000e+00 -5.0320456384353861e-02 
3.4653833426621883e-01 0.0000000000000000e+00 -5.0320456384244511e-02 
3.7100396854413614e-01 0.0000000000000000e+00 -5.6693826961024166e-02 
3.7100396854437462e-01 0.0000000000000000e+00 -5.6693826960938075e-02 

