# vtk DataFile Version 2.0

ASCII

DATASET UNSTRUCTURED_GRID

POINTS 86 double 

5.0000000000000003e-02  0.0000000000000000e+00  0.0000000000000000e+00
5.0000000000000003e-02  0.0000000000000000e+00  5.0000000000000003e-02
5.0000000000000003e-02  2.9999999999999999e-01  0.0000000000000000e+00
5.0000000000000003e-02  2.9999999999999999e-01  5.0000000000000003e-02
5.0000000000000003e-02  0.0000000000000000e+00  1.0000000000000001e-01
5.0000000000000003e-02  2.9999999999999999e-01  1.0000000000000001e-01
5.0000000000000003e-02  0.0000000000000000e+00  1.4999999999999999e-01
5.0000000000000003e-02  2.9999999999999999e-01  1.4999999999999999e-01
5.0000000000000003e-02  0.0000000000000000e+00  2.0000000000000001e-01
5.0000000000000003e-02  2.9999999999999999e-01  2.0000000000000001e-01
5.0000000000000003e-02  0.0000000000000000e+00  2.5000000000000000e-01
5.0000000000000003e-02  2.9999999999999999e-01  2.5000000000000000e-01
5.0000000000000003e-02  0.0000000000000000e+00  2.9999999999999999e-01
5.0000000000000003e-02  2.9999999999999999e-01  2.9999999999999999e-01
5.0000000000000003e-02  0.0000000000000000e+00  3.4999999999999998e-01
5.0000000000000003e-02  2.9999999999999999e-01  3.4999999999999998e-01
5.0000000000000003e-02  0.0000000000000000e+00  4.0000000000000002e-01
5.0000000000000003e-02  2.9999999999999999e-01  4.0000000000000002e-01
5.0000000000000003e-02  0.0000000000000000e+00  4.5000000000000001e-01
5.0000000000000003e-02  2.9999999999999999e-01  4.5000000000000001e-01
5.0000000000000003e-02  0.0000000000000000e+00  5.0000000000000000e-01
5.0000000000000003e-02  2.9999999999999999e-01  5.0000000000000000e-01
5.0000000000000003e-02  0.0000000000000000e+00  5.5000000000000004e-01
5.0000000000000003e-02  2.9999999999999999e-01  5.5000000000000004e-01
5.0000000000000003e-02  0.0000000000000000e+00  5.9999999999999998e-01
5.0000000000000003e-02  2.9999999999999999e-01  5.9999999999999998e-01
5.0000000000000003e-02  0.0000000000000000e+00  6.5000000000000002e-01
5.0000000000000003e-02  2.9999999999999999e-01  6.5000000000000002e-01
5.0000000000000003e-02  0.0000000000000000e+00  6.9999999999999996e-01
5.0000000000000003e-02  2.9999999999999999e-01  6.9999999999999996e-01
5.0000000000000003e-02  0.0000000000000000e+00  7.5000000000000000e-01
5.0000000000000003e-02  2.9999999999999999e-01  7.5000000000000000e-01
5.0000000000000003e-02  0.0000000000000000e+00  8.0000000000000004e-01
5.0000000000000003e-02  2.9999999999999999e-01  8.0000000000000004e-01
5.0000000000000003e-02  0.0000000000000000e+00  8.4999999999999998e-01
5.0000000000000003e-02  2.9999999999999999e-01  8.4999999999999998e-01
5.0000000000000003e-02  0.0000000000000000e+00  9.0000000000000002e-01
5.0000000000000003e-02  2.9999999999999999e-01  9.0000000000000002e-01
5.0000000000000003e-02  0.0000000000000000e+00  9.4999999999999996e-01
5.0000000000000003e-02  2.9999999999999999e-01  9.4999999999999996e-01
0.0000000000000000e+00  0.0000000000000000e+00  1.0000000000000000e+00
5.0000000000000003e-02  0.0000000000000000e+00  1.0000000000000000e+00
0.0000000000000000e+00  2.9999999999999999e-01  1.0000000000000000e+00
5.0000000000000003e-02  2.9999999999999999e-01  1.0000000000000000e+00
-5.0000000000000003e-02  0.0000000000000000e+00  0.0000000000000000e+00
-5.0000000000000003e-02  0.0000000000000000e+00  5.0000000000000003e-02
-5.0000000000000003e-02  2.9999999999999999e-01  0.0000000000000000e+00
-5.0000000000000003e-02  2.9999999999999999e-01  5.0000000000000003e-02
-5.0000000000000003e-02  0.0000000000000000e+00  1.0000000000000001e-01
-5.0000000000000003e-02  2.9999999999999999e-01  1.0000000000000001e-01
-5.0000000000000003e-02  0.0000000000000000e+00  1.4999999999999999e-01
-5.0000000000000003e-02  2.9999999999999999e-01  1.4999999999999999e-01
-5.0000000000000003e-02  0.0000000000000000e+00  2.0000000000000001e-01
-5.0000000000000003e-02  2.9999999999999999e-01  2.0000000000000001e-01
-5.0000000000000003e-02  0.0000000000000000e+00  2.5000000000000000e-01
-5.0000000000000003e-02  2.9999999999999999e-01  2.5000000000000000e-01
-5.0000000000000003e-02  0.0000000000000000e+00  2.9999999999999999e-01
-5.0000000000000003e-02  2.9999999999999999e-01  2.9999999999999999e-01
-5.0000000000000003e-02  0.0000000000000000e+00  3.4999999999999998e-01
-5.0000000000000003e-02  2.9999999999999999e-01  3.4999999999999998e-01
-5.0000000000000003e-02  0.0000000000000000e+00  4.0000000000000002e-01
-5.0000000000000003e-02  2.9999999999999999e-01  4.0000000000000002e-01
-5.0000000000000003e-02  0.0000000000000000e+00  4.5000000000000001e-01
-5.0000000000000003e-02  2.9999999999999999e-01  4.5000000000000001e-01
-5.0000000000000003e-02  0.0000000000000000e+00  5.0000000000000000e-01
-5.0000000000000003e-02  2.9999999999999999e-01  5.0000000000000000e-01
-5.0000000000000003e-02  0.0000000000000000e+00  5.5000000000000004e-01
-5.0000000000000003e-02  2.9999999999999999e-01  5.5000000000000004e-01
-5.0000000000000003e-02  0.0000000000000000e+00  5.9999999999999998e-01
-5.0000000000000003e-02  2.9999999999999999e-01  5.9999999999999998e-01
-5.0000000000000003e-02  0.0000000000000000e+00  6.5000000000000002e-01
-5.0000000000000003e-02  2.9999999999999999e-01  6.5000000000000002e-01
-5.0000000000000003e-02  0.0000000000000000e+00  6.9999999999999996e-01
-5.0000000000000003e-02  2.9999999999999999e-01  6.9999999999999996e-01
-5.0000000000000003e-02  0.0000000000000000e+00  7.5000000000000000e-01
-5.0000000000000003e-02  2.9999999999999999e-01  7.5000000000000000e-01
-5.0000000000000003e-02  0.0000000000000000e+00  8.0000000000000004e-01
-5.0000000000000003e-02  2.9999999999999999e-01  8.0000000000000004e-01
-5.0000000000000003e-02  0.0000000000000000e+00  8.4999999999999998e-01
-5.0000000000000003e-02  2.9999999999999999e-01  8.4999999999999998e-01
-5.0000000000000003e-02  0.0000000000000000e+00  9.0000000000000002e-01
-5.0000000000000003e-02  2.9999999999999999e-01  9.0000000000000002e-01
-5.0000000000000003e-02  0.0000000000000000e+00  9.4999999999999996e-01
-5.0000000000000003e-02  2.9999999999999999e-01  9.4999999999999996e-01
-5.0000000000000003e-02  0.0000000000000000e+00  1.0000000000000000e+00
-5.0000000000000003e-02  2.9999999999999999e-01  1.0000000000000000e+00

CELLS 0 0


CELL_TYPES 0


POINT_DATA 86

VECTORS VertexNormals double

0.0000000000000000e+00 0.0000000000000000e+00 0.0000000000000000e+00 
0.0000000000000000e+00 0.0000000000000000e+00 0.0000000000000000e+00 
0.0000000000000000e+00 0.0000000000000000e+00 0.0000000000000000e+00 
0.0000000000000000e+00 0.0000000000000000e+00 0.0000000000000000e+00 
0.0000000000000000e+00 0.0000000000000000e+00 0.0000000000000000e+00 
0.0000000000000000e+00 0.0000000000000000e+00 0.0000000000000000e+00 
0.0000000000000000e+00 0.0000000000000000e+00 0.0000000000000000e+00 
0.0000000000000000e+00 0.0000000000000000e+00 0.0000000000000000e+00 
0.0000000000000000e+00 0.0000000000000000e+00 0.0000000000000000e+00 
0.0000000000000000e+00 0.0000000000000000e+00 0.0000000000000000e+00 
0.0000000000000000e+00 0.0000000000000000e+00 0.0000000000000000e+00 
0.0000000000000000e+00 0.0000000000000000e+00 0.0000000000000000e+00 
0.0000000000000000e+00 0.0000000000000000e+00 0.0000000000000000e+00 
0.0000000000000000e+00 0.0000000000000000e+00 0.0000000000000000e+00 
0.0000000000000000e+00 0.0000000000000000e+00 0.0000000000000000e+00 
0.0000000000000000e+00 0.0000000000000000e+00 0.0000000000000000e+00 
0.0000000000000000e+00 0.0000000000000000e+00 0.0000000000000000e+00 
0.0000000000000000e+00 0.0000000000000000e+00 0.0000000000000000e+00 
0.0000000000000000e+00 0.0000000000000000e+00 0.0000000000000000e+00 
0.0000000000000000e+00 0.0000000000000000e+00 0.0000000000000000e+00 
0.0000000000000000e+00 0.0000000000000000e+00 0.0000000000000000e+00 
0.0000000000000000e+00 0.0000000000000000e+00 0.0000000000000000e+00 
0.0000000000000000e+00 0.0000000000000000e+00 0.0000000000000000e+00 
0.0000000000000000e+00 0.0000000000000000e+00 0.0000000000000000e+00 
0.0000000000000000e+00 0.0000000000000000e+00 0.0000000000000000e+00 
0.0000000000000000e+00 0.0000000000000000e+00 0.0000000000000000e+00 
0.0000000000000000e+00 0.0000000000000000e+00 0.0000000000000000e+00 
0.0000000000000000e+00 0.0000000000000000e+00 0.0000000000000000e+00 
0.0000000000000000e+00 0.0000000000000000e+00 0.0000000000000000e+00 
0.0000000000000000e+00 0.0000000000000000e+00 0.0000000000000000e+00 
0.0000000000000000e+00 0.0000000000000000e+00 0.0000000000000000e+00 
0.0000000000000000e+00 0.0000000000000000e+00 0.0000000000000000e+00 
0.0000000000000000e+00 0.0000000000000000e+00 0.0000000000000000e+00 
0.0000000000000000e+00 0.0000000000000000e+00 0.0000000000000000e+00 
0.0000000000000000e+00 0.0000000000000000e+00 0.0000000000000000e+00 
0.0000000000000000e+00 0.0000000000000000e+00 0.0000000000000000e+00 
0.0000000000000000e+00 0.0000000000000000e+00 0.0000000000000000e+00 
0.0000000000000000e+00 0.0000000000000000e+00 0.0000000000000000e+00 
0.0000000000000000e+00 0.0000000000000000e+00 0.0000000000000000e+00 
0.0000000000000000e+00 0.0000000000000000e+00 0.0000000000000000e+00 
0.0000000000000000e+00 0.0000000000000000e+00 0.0000000000000000e+00 
0.0000000000000000e+00 0.0000000000000000e+00 0.0000000000000000e+00 
0.0000000000000000e+00 0.0000000000000000e+00 0.0000000000000000e+00 
0.0000000000000000e+00 0.0000000000000000e+00 0.0000000000000000e+00 
0.0000000000000000e+00 0.0000000000000000e+00 0.0000000000000000e+00 
0.0000000000000000e+00 0.0000000000000000e+00 0.0000000000000000e+00 
0.0000000000000000e+00 0.0000000000000000e+00 0.0000000000000000e+00 
0.0000000000000000e+00 0.0000000000000000e+00 0.0000000000000000e+00 
0.0000000000000000e+00 0.0000000000000000e+00 0.0000000000000000e+00 
0.0000000000000000e+00 0.0000000000000000e+00 0.0000000000000000e+00 
0.0000000000000000e+00 0.0000000000000000e+00 0.0000000000000000e+00 
0.0000000000000000e+00 0.0000000000000000e+00 0.0000000000000000e+00 
0.0000000000000000e+00 0.0000000000000000e+00 0.0000000000000000e+00 
0.0000000000000000e+00 0.0000000000000000e+00 0.0000000000000000e+00 
0.0000000000000000e+00 0.0000000000000000e+00 0.0000000000000000e+00 
0.0000000000000000e+00 0.0000000000000000e+00 0.0000000000000000e+00 
0.0000000000000000e+00 0.0000000000000000e+00 0.0000000000000000e+00 
0.0000000000000000e+00 0.0000000000000000e+00 0.0000000000000000e+00 
0.0000000000000000e+00 0.0000000000000000e+00 0.0000000000000000e+00 
0.0000000000000000e+00 0.0000000000000000e+00 0.0000000000000000e+00 
0.0000000000000000e+00 0.0000000000000000e+00 0.0000000000000000e+00 
0.0000000000000000e+00 0.0000000000000000e+00 0.0000000000000000e+00 
0.0000000000000000e+00 0.0000000000000000e+00 0.0000000000000000e+00 
0.0000000000000000e+00 0.0000000000000000e+00 0.0000000000000000e+00 
0.0000000000000000e+00 0.0000000000000000e+00 0.0000000000000000e+00 
0.0000000000000000e+00 0.0000000000000000e+00 0.0000000000000000e+00 
0.0000000000000000e+00 0.0000000000000000e+00 0.0000000000000000e+00 
0.0000000000000000e+00 0.0000000000000000e+00 0.0000000000000000e+00 
0.0000000000000000e+00 0.0000000000000000e+00 0.0000000000000000e+00 
0.0000000000000000e+00 0.0000000000000000e+00 0.0000000000000000e+00 
0.0000000000000000e+00 0.0000000000000000e+00 0.0000000000000000e+00 
0.0000000000000000e+00 0.0000000000000000e+00 0.0000000000000000e+00 
0.0000000000000000e+00 0.0000000000000000e+00 0.0000000000000000e+00 
0.0000000000000000e+00 0.0000000000000000e+00 0.0000000000000000e+00 
0.0000000000000000e+00 0.0000000000000000e+00 0.0000000000000000e+00 
0.0000000000000000e+00 0.0000000000000000e+00 0.0000000000000000e+00 
0.0000000000000000e+00 0.0000000000000000e+00 0.0000000000000000e+00 
0.0000000000000000e+00 0.0000000000000000e+00 0.0000000000000000e+00 
0.0000000000000000e+00 0.0000000000000000e+00 0.0000000000000000e+00 
0.0000000000000000e+00 0.0000000000000000e+00 0.0000000000000000e+00 
0.0000000000000000e+00 0.0000000000000000e+00 0.0000000000000000e+00 
0.0000000000000000e+00 0.0000000000000000e+00 0.0000000000000000e+00 
0.0000000000000000e+00 0.0000000000000000e+00 0.0000000000000000e+00 
0.0000000000000000e+00 0.0000000000000000e+00 0.0000000000000000e+00 
0.0000000000000000e+00 0.0000000000000000e+00 0.0000000000000000e+00 
0.0000000000000000e+00 0.0000000000000000e+00 0.0000000000000000e+00 

VECTORS Forces0 double
-2.7889216701864561e-01 0.0000000000000000e+00 8.6317731172422460e-03 
-6.0792354712866803e-01 0.0000000000000000e+00 2.8488734822254950e-02 
-2.7889216701871933e-01 0.0000000000000000e+00 8.6317731450059349e-03 
-6.0792354705961837e-01 0.0000000000000000e+00 2.8488734947468734e-02 
-6.9146230979676782e-01 0.0000000000000000e+00 7.1462038943306563e-02 
-6.9146230979717327e-01 0.0000000000000000e+00 7.1462038815591628e-02 
-5.8584285829853788e-01 0.0000000000000000e+00 9.4217539981717516e-02 
-5.8584285822846927e-01 0.0000000000000000e+00 9.4217540106064118e-02 
-5.6530524637945800e-01 0.0000000000000000e+00 1.1180656569725915e-01 
-5.6530524638238000e-01 0.0000000000000000e+00 1.1180656554546224e-01 
-5.8268602888605570e-01 0.0000000000000000e+00 1.3651268551264256e-01 
-5.8268602895744348e-01 0.0000000000000000e+00 1.3651268533754551e-01 
-6.8798282422848323e-01 0.0000000000000000e+00 1.9877964354634345e-01 
-6.8798282402057054e-01 0.0000000000000000e+00 1.9877964367308729e-01 
-5.7256307528656070e-01 0.0000000000000000e+00 1.9469462939316759e-01 
-5.7256307507659587e-01 0.0000000000000000e+00 1.9469462944430699e-01 
-5.5207107111794951e-01 0.0000000000000000e+00 2.0380956674979234e-01 
-5.5207107083728602e-01 0.0000000000000000e+00 2.0380956662257360e-01 
-5.6461630799999951e-01 0.0000000000000000e+00 2.2445988203543246e-01 
-5.6461630778788852e-01 0.0000000000000000e+00 2.2445988221273822e-01 
-6.5939759141107468e-01 0.0000000000000000e+00 2.8519896817855445e-01 
-6.5939759155315503e-01 0.0000000000000000e+00 2.8519896825417995e-01 
-5.4568823831060387e-01 0.0000000000000000e+00 2.5117803690491342e-01 
-5.4568823809766454e-01 0.0000000000000000e+00 2.5117803687979440e-01 
-5.2390046513688016e-01 0.0000000000000000e+00 2.4928896501118955e-01 
-5.2390046499717380e-01 0.0000000000000000e+00 2.4928896516305590e-01 
-5.3050880495607866e-01 0.0000000000000000e+00 2.6036447007146890e-01 
-5.3050880502579090e-01 0.0000000000000000e+00 2.6036447004605473e-01 
-6.1180857849776338e-01 0.0000000000000000e+00 3.1178409922385791e-01 
-6.1180857835602809e-01 0.0000000000000000e+00 3.1178409922371270e-01 
-5.0199644656618003e-01 0.0000000000000000e+00 2.6267512564864498e-01 
-5.0199644663290954e-01 0.0000000000000000e+00 2.6267512557283179e-01 
-4.7920769362176019e-01 0.0000000000000000e+00 2.5305271186436418e-01 
-4.7920769376052103e-01 0.0000000000000000e+00 2.5305271186411060e-01 
-4.8179923758560839e-01 0.0000000000000000e+00 2.5598311717712030e-01 
-4.8179923722708684e-01 0.0000000000000000e+00 2.5598311707575122e-01 
-5.4014392488713658e-01 0.0000000000000000e+00 2.8971267762568775e-01 
-5.4014392474434425e-01 0.0000000000000000e+00 2.8971267760000630e-01 
-4.8963016714849877e-01 0.0000000000000000e+00 2.5091336792922764e-01 
-4.8963016729408310e-01 0.0000000000000000e+00 2.5091336800486125e-01 
-1.3271512621915954e-01 0.0000000000000000e+00 -2.5433331954675570e-01 
-2.6449052672847229e-01 0.0000000000000000e+00 -3.3922457752750768e-02 
-1.3271512601003893e-01 0.0000000000000000e+00 -2.5433331952084931e-01 
-2.6449052673171725e-01 0.0000000000000000e+00 -3.3922457727567391e-02 
5.7289349096923270e-01 0.0000000000000000e+00 -2.6744192602969924e-02 
1.5809439558821876e+00 0.0000000000000000e+00 -6.8124964162459431e-02 
5.7289349096898257e-01 0.0000000000000000e+00 -2.6744192628931060e-02 
1.5809439557427449e+00 0.0000000000000000e+00 -6.8124964264246149e-02 
1.6217335509811008e+00 0.0000000000000000e+00 -1.6639491479364238e-01 
1.6217335511222659e+00 0.0000000000000000e+00 -1.6639491461471542e-01 
1.4031079767536239e+00 0.0000000000000000e+00 -2.2193030928845378e-01 
1.4031079768226526e+00 0.0000000000000000e+00 -2.2193030939092984e-01 
1.3706815382170701e+00 0.0000000000000000e+00 -2.6830072600365051e-01 
1.3706815382848778e+00 0.0000000000000000e+00 -2.6830072605414679e-01 
1.3619938770929516e+00 0.0000000000000000e+00 -3.1779095749742364e-01 
1.3619938770217639e+00 0.0000000000000000e+00 -3.1779095754825931e-01 
1.5354133685910145e+00 0.0000000000000000e+00 -4.4090186525536051e-01 
1.5354133685892108e+00 0.0000000000000000e+00 -4.4090186520441083e-01 
1.2687631982239966e+00 0.0000000000000000e+00 -4.2724515630756826e-01 
1.2687631982221705e+00 0.0000000000000000e+00 -4.2724515635820676e-01 
1.2209482368418836e+00 0.0000000000000000e+00 -4.4664165634019060e-01 
1.2209482368442424e+00 0.0000000000000000e+00 -4.4664165631487807e-01 
1.1925635387863653e+00 0.0000000000000000e+00 -4.7140920036382294e-01 
1.1925635387869997e+00 0.0000000000000000e+00 -4.7140920031343558e-01 
1.3241358253591344e+00 0.0000000000000000e+00 -5.6888267923794489e-01 
1.3241358253593536e+00 0.0000000000000000e+00 -5.6888267923786284e-01 
1.0865998346865953e+00 0.0000000000000000e+00 -4.9599656959489979e-01 
1.0865998347571719e+00 0.0000000000000000e+00 -4.9599656956955018e-01 
1.0422028429288679e+00 0.0000000000000000e+00 -4.9173862718087341e-01 
1.0422028429991905e+00 0.0000000000000000e+00 -4.9173862718073791e-01 
1.0161990237799647e+00 0.0000000000000000e+00 -4.9507040696212939e-01 
1.0161990236385363e+00 0.0000000000000000e+00 -4.9507040691190818e-01 
1.1240096755359290e+00 0.0000000000000000e+00 -5.6811339474277067e-01 
1.1240096754653213e+00 0.0000000000000000e+00 -5.6811339469210398e-01 
9.1470017169242024e-01 0.0000000000000000e+00 -4.7409046905945768e-01 
9.1470017183338359e-01 0.0000000000000000e+00 -4.7409046905955043e-01 
8.7019318038313431e-01 0.0000000000000000e+00 -4.5465828869676878e-01 
8.7019318038317561e-01 0.0000000000000000e+00 -4.5465828872198177e-01 
8.4259234019541762e-01 0.0000000000000000e+00 -4.4355797378055478e-01 
8.4259234012506046e-01 0.0000000000000000e+00 -4.4355797375523781e-01 
9.0507716398768068e-01 0.0000000000000000e+00 -4.7435824312032548e-01 
9.0507716405907213e-01 0.0000000000000000e+00 -4.7435824314541858e-01 
7.5214545774539110e-01 0.0000000000000000e+00 -3.9880616772028027e-01 
7.5214545774616948e-01 0.0000000000000000e+00 -3.9880616777106725e-01 
2.8286596637074052e-01 0.0000000000000000e+00 -1.6476004836608252e-01 
2.8286596630042637e-01 0.0000000000000000e+00 -1.6476004834075528e-01 

VECTORS Displacements0 double
6.9356603593235591e-310 0.0000000000000000e+00 0.0000000000000000e+00 
1.7256248632754191e-03 0.0000000000000000e+00 -2.6149428772673546e-03 
0.0000000000000000e+00 0.0000000000000000e+00 0.0000000000000000e+00 
1.7256248631889058e-03 0.0000000000000000e+00 -2.6149428772135296e-03 
5.4995298783911319e-03 0.0000000000000000e+00 -5.3566112933694744e-03 
5.4995298783502783e-03 0.0000000000000000e+00 -5.3566112933130430e-03 
1.1717576081205496e-02 0.0000000000000000e+00 -8.1569393060096154e-03 
1.1717576081217798e-02 0.0000000000000000e+00 -8.1569393059314627e-03 
2.0148130742915014e-02 0.0000000000000000e+00 -1.1179148252312011e-02 
2.0148130743039915e-02 0.0000000000000000e+00 -1.1179148252225669e-02 
3.0712151841719597e-02 0.0000000000000000e+00 -1.4505478130559475e-02 
3.0712151841940816e-02 0.0000000000000000e+00 -1.4505478130426420e-02 
4.3293564208117329e-02 0.0000000000000000e+00 -1.8188054892908742e-02 
4.3293564208277742e-02 0.0000000000000000e+00 -1.8188054892694119e-02 
5.7768709957027688e-02 0.0000000000000000e+00 -2.2244023711248312e-02 
5.7768709957030914e-02 0.0000000000000000e+00 -2.2244023711022354e-02 
7.3959201662497795e-02 0.0000000000000000e+00 -2.6648119449258181e-02 
7.3959201662402552e-02 0.0000000000000000e+00 -2.6648119449093410e-02 
9.1637076700730152e-02 0.0000000000000000e+00 -3.1357038206122755e-02 
9.1637076700554904e-02 0.0000000000000000e+00 -3.1357038206062095e-02 
1.1055646369087732e-01 0.0000000000000000e+00 -3.6344932959947597e-02 
1.1055646369076101e-01 0.0000000000000000e+00 -3.6344932960037560e-02 
1.3053404457317630e-01 0.0000000000000000e+00 -4.1621656518026143e-02 
1.3053404457322709e-01 0.0000000000000000e+00 -4.1621656518244399e-02 
1.5145706283056234e-01 0.0000000000000000e+00 -4.7190738543704466e-02 
1.5145706283079133e-01 0.0000000000000000e+00 -4.7190738543976554e-02 
1.7324049226507987e-01 0.0000000000000000e+00 -5.3006018166870068e-02 
1.7324049226541982e-01 0.0000000000000000e+00 -5.3006018167128278e-02 
1.9574072716592456e-01 0.0000000000000000e+00 -5.8960584526996311e-02 
1.9574072716624241e-01 0.0000000000000000e+00 -5.8960584527149536e-02 
2.1874901531131358e-01 0.0000000000000000e+00 -6.4936260762216466e-02 
2.1874901531153973e-01 0.0000000000000000e+00 -6.4936260762270173e-02 
2.4203047851646697e-01 0.0000000000000000e+00 -7.0849223043122259e-02 
2.4203047851655035e-01 0.0000000000000000e+00 -7.0849223043108547e-02 
2.6540375505553165e-01 0.0000000000000000e+00 -7.6677972986988058e-02 
2.6540375505547076e-01 0.0000000000000000e+00 -7.6677972986930160e-02 
2.8876632097924065e-01 0.0000000000000000e+00 -8.2445281071656940e-02 
2.8876632097905436e-01 0.0000000000000000e+00 -8.2445281071479623e-02 
3.1209364856678157e-01 0.0000000000000000e+00 -8.8192478009048364e-02 
3.1209364856633809e-01 0.0000000000000000e+00 -8.8192478008645034e-02 
3.4117011993880453e-01 0.0000000000000000e+00 -7.0646940034105599e-02 
3.3540096746923381e-01 0.0000000000000000e+00 -9.3947540484237146e-02 
3.4117011993787610e-01 0.0000000000000000e+00 -7.0646940033827280e-02 
3.3540096746847003e-01 0.0000000000000000e+00 -9.3947540483624123e-02 
0.0000000000000000e+00 0.0000000000000000e+00 0.0000000000000000e+00 
1.9854386977335237e-03 0.0000000000000000e+00 2.5624188886580303e-03 
0.0000000000000000e+00 0.0000000000000000e+00 0.0000000000000000e+00 
1.9854386976673106e-03 0.0000000000000000e+00 2.5624188887095178e-03 
6.1779383276534729e-03 0.0000000000000000e+00 4.9826139026579461e-03 
6.1779383276199910e-03 0.0000000000000000e+00 4.9826139027760070e-03 
1.2996531839309888e-02 0.0000000000000000e+00 6.9719593325043702e-03 
1.2996531839385391e-02 0.0000000000000000e+00 6.9719593326483236e-03 
2.2224912615511794e-02 0.0000000000000000e+00 8.4767145431129537e-03 
2.2224912615668797e-02 0.0000000000000000e+00 8.4767145432568698e-03 
3.3735726652609078e-02 0.0000000000000000e+00 9.4003792452937197e-03 
3.3735726652776861e-02 0.0000000000000000e+00 9.4003792453785668e-03 
4.7375102843638724e-02 0.0000000000000000e+00 9.6578565595320572e-03 
4.7375102843712484e-02 0.0000000000000000e+00 9.6578565595676225e-03 
6.2947995461026474e-02 0.0000000000000000e+00 9.1773481503712225e-03 
6.2947995460963982e-02 0.0000000000000000e+00 9.1773481504077627e-03 
8.0227716242537023e-02 0.0000000000000000e+00 7.9118403679702739e-03 
8.0227716242369282e-02 0.0000000000000000e+00 7.9118403680476981e-03 
9.8928192984119465e-02 0.0000000000000000e+00 5.8791487535104908e-03 
9.8928192983958857e-02 0.0000000000000000e+00 5.8791487536344394e-03 
1.1878809533161197e-01 0.0000000000000000e+00 3.1569616809108475e-03 
1.1878809533157321e-01 0.0000000000000000e+00 3.1569616810207318e-03 
1.3962047034306485e-01 0.0000000000000000e+00 -1.6079295693794280e-04 
1.3962047034319944e-01 0.0000000000000000e+00 -1.6079295690330715e-04 
1.6132887393945958e-01 0.0000000000000000e+00 -4.0309491902832230e-03 
1.6132887393975281e-01 0.0000000000000000e+00 -4.0309491903771089e-03 
1.8378958834933326e-01 0.0000000000000000e+00 -8.4413279645064315e-03 
1.8378958834966444e-01 0.0000000000000000e+00 -8.4413279647365599e-03 
2.0680874731306503e-01 0.0000000000000000e+00 -1.3360641056155715e-02 
2.0680874731329343e-01 0.0000000000000000e+00 -1.3360641056459278e-02 
2.3013678082545358e-01 0.0000000000000000e+00 -1.8690965920386198e-02 
2.3013678082551420e-01 0.0000000000000000e+00 -1.8690965920698358e-02 
2.5357161380168247e-01 0.0000000000000000e+00 -2.4296747185406632e-02 
2.5357161380155541e-01 0.0000000000000000e+00 -2.4296747185684836e-02 
2.7698459086747917e-01 0.0000000000000000e+00 -3.0038390268319996e-02 
2.7698459086719879e-01 0.0000000000000000e+00 -3.0038390268570820e-02 
3.0033785467869234e-01 0.0000000000000000e+00 -3.5818291819542519e-02 
3.0033785467825441e-01 0.0000000000000000e+00 -3.5818291819807363e-02 
3.2364316177285074e-01 0.0000000000000000e+00 -4.1588058902049509e-02 
3.2364316177210933e-01 0.0000000000000000e+00 -4.1588058902272421e-02 
3.4693975905156171e-01 0.0000000000000000e+00 -4.7346373558594612e-02 
3.4693975905041613e-01 0.0000000000000000e+00 -4.7346373558669670e-02 

