# vtk DataFile Version 2.0

ASCII

DATASET UNSTRUCTURED_GRID

POINTS 86 double 

5.0000000000000003e-02  0.0000000000000000e+00  0.0000000000000000e+00
5.0000000000000003e-02  0.0000000000000000e+00  5.0000000000000003e-02
5.0000000000000003e-02  2.9999999999999999e-01  0.0000000000000000e+00
5.0000000000000003e-02  2.9999999999999999e-01  5.0000000000000003e-02
5.0000000000000003e-02  0.0000000000000000e+00  1.0000000000000001e-01
5.0000000000000003e-02  2.9999999999999999e-01  1.0000000000000001e-01
5.0000000000000003e-02  0.0000000000000000e+00  1.4999999999999999e-01
5.0000000000000003e-02  2.9999999999999999e-01  1.4999999999999999e-01
5.0000000000000003e-02  0.0000000000000000e+00  2.0000000000000001e-01
5.0000000000000003e-02  2.9999999999999999e-01  2.0000000000000001e-01
5.0000000000000003e-02  0.0000000000000000e+00  2.5000000000000000e-01
5.0000000000000003e-02  2.9999999999999999e-01  2.5000000000000000e-01
5.0000000000000003e-02  0.0000000000000000e+00  2.9999999999999999e-01
5.0000000000000003e-02  2.9999999999999999e-01  2.9999999999999999e-01
5.0000000000000003e-02  0.0000000000000000e+00  3.4999999999999998e-01
5.0000000000000003e-02  2.9999999999999999e-01  3.4999999999999998e-01
5.0000000000000003e-02  0.0000000000000000e+00  4.0000000000000002e-01
5.0000000000000003e-02  2.9999999999999999e-01  4.0000000000000002e-01
5.0000000000000003e-02  0.0000000000000000e+00  4.5000000000000001e-01
5.0000000000000003e-02  2.9999999999999999e-01  4.5000000000000001e-01
5.0000000000000003e-02  0.0000000000000000e+00  5.0000000000000000e-01
5.0000000000000003e-02  2.9999999999999999e-01  5.0000000000000000e-01
5.0000000000000003e-02  0.0000000000000000e+00  5.5000000000000004e-01
5.0000000000000003e-02  2.9999999999999999e-01  5.5000000000000004e-01
5.0000000000000003e-02  0.0000000000000000e+00  5.9999999999999998e-01
5.0000000000000003e-02  2.9999999999999999e-01  5.9999999999999998e-01
5.0000000000000003e-02  0.0000000000000000e+00  6.5000000000000002e-01
5.0000000000000003e-02  2.9999999999999999e-01  6.5000000000000002e-01
5.0000000000000003e-02  0.0000000000000000e+00  6.9999999999999996e-01
5.0000000000000003e-02  2.9999999999999999e-01  6.9999999999999996e-01
5.0000000000000003e-02  0.0000000000000000e+00  7.5000000000000000e-01
5.0000000000000003e-02  2.9999999999999999e-01  7.5000000000000000e-01
5.0000000000000003e-02  0.0000000000000000e+00  8.0000000000000004e-01
5.0000000000000003e-02  2.9999999999999999e-01  8.0000000000000004e-01
5.0000000000000003e-02  0.0000000000000000e+00  8.4999999999999998e-01
5.0000000000000003e-02  2.9999999999999999e-01  8.4999999999999998e-01
5.0000000000000003e-02  0.0000000000000000e+00  9.0000000000000002e-01
5.0000000000000003e-02  2.9999999999999999e-01  9.0000000000000002e-01
5.0000000000000003e-02  0.0000000000000000e+00  9.4999999999999996e-01
5.0000000000000003e-02  2.9999999999999999e-01  9.4999999999999996e-01
0.0000000000000000e+00  0.0000000000000000e+00  1.0000000000000000e+00
5.0000000000000003e-02  0.0000000000000000e+00  1.0000000000000000e+00
0.0000000000000000e+00  2.9999999999999999e-01  1.0000000000000000e+00
5.0000000000000003e-02  2.9999999999999999e-01  1.0000000000000000e+00
-5.0000000000000003e-02  0.0000000000000000e+00  0.0000000000000000e+00
-5.0000000000000003e-02  0.0000000000000000e+00  5.0000000000000003e-02
-5.0000000000000003e-02  2.9999999999999999e-01  0.0000000000000000e+00
-5.0000000000000003e-02  2.9999999999999999e-01  5.0000000000000003e-02
-5.0000000000000003e-02  0.0000000000000000e+00  1.0000000000000001e-01
-5.0000000000000003e-02  2.9999999999999999e-01  1.0000000000000001e-01
-5.0000000000000003e-02  0.0000000000000000e+00  1.4999999999999999e-01
-5.0000000000000003e-02  2.9999999999999999e-01  1.4999999999999999e-01
-5.0000000000000003e-02  0.0000000000000000e+00  2.0000000000000001e-01
-5.0000000000000003e-02  2.9999999999999999e-01  2.0000000000000001e-01
-5.0000000000000003e-02  0.0000000000000000e+00  2.5000000000000000e-01
-5.0000000000000003e-02  2.9999999999999999e-01  2.5000000000000000e-01
-5.0000000000000003e-02  0.0000000000000000e+00  2.9999999999999999e-01
-5.0000000000000003e-02  2.9999999999999999e-01  2.9999999999999999e-01
-5.0000000000000003e-02  0.0000000000000000e+00  3.4999999999999998e-01
-5.0000000000000003e-02  2.9999999999999999e-01  3.4999999999999998e-01
-5.0000000000000003e-02  0.0000000000000000e+00  4.0000000000000002e-01
-5.0000000000000003e-02  2.9999999999999999e-01  4.0000000000000002e-01
-5.0000000000000003e-02  0.0000000000000000e+00  4.5000000000000001e-01
-5.0000000000000003e-02  2.9999999999999999e-01  4.5000000000000001e-01
-5.0000000000000003e-02  0.0000000000000000e+00  5.0000000000000000e-01
-5.0000000000000003e-02  2.9999999999999999e-01  5.0000000000000000e-01
-5.0000000000000003e-02  0.0000000000000000e+00  5.5000000000000004e-01
-5.0000000000000003e-02  2.9999999999999999e-01  5.5000000000000004e-01
-5.0000000000000003e-02  0.0000000000000000e+00  5.9999999999999998e-01
-5.0000000000000003e-02  2.9999999999999999e-01  5.9999999999999998e-01
-5.0000000000000003e-02  0.0000000000000000e+00  6.5000000000000002e-01
-5.0000000000000003e-02  2.9999999999999999e-01  6.5000000000000002e-01
-5.0000000000000003e-02  0.0000000000000000e+00  6.9999999999999996e-01
-5.0000000000000003e-02  2.9999999999999999e-01  6.9999999999999996e-01
-5.0000000000000003e-02  0.0000000000000000e+00  7.5000000000000000e-01
-5.0000000000000003e-02  2.9999999999999999e-01  7.5000000000000000e-01
-5.0000000000000003e-02  0.0000000000000000e+00  8.0000000000000004e-01
-5.0000000000000003e-02  2.9999999999999999e-01  8.0000000000000004e-01
-5.0000000000000003e-02  0.0000000000000000e+00  8.4999999999999998e-01
-5.0000000000000003e-02  2.9999999999999999e-01  8.4999999999999998e-01
-5.0000000000000003e-02  0.0000000000000000e+00  9.0000000000000002e-01
-5.0000000000000003e-02  2.9999999999999999e-01  9.0000000000000002e-01
-5.0000000000000003e-02  0.0000000000000000e+00  9.4999999999999996e-01
-5.0000000000000003e-02  2.9999999999999999e-01  9.4999999999999996e-01
-5.0000000000000003e-02  0.0000000000000000e+00  1.0000000000000000e+00
-5.0000000000000003e-02  2.9999999999999999e-01  1.0000000000000000e+00

CELLS 0 0


CELL_TYPES 0


POINT_DATA 86

VECTORS VertexNormals double

0.0000000000000000e+00 0.0000000000000000e+00 0.0000000000000000e+00 
0.0000000000000000e+00 0.0000000000000000e+00 0.0000000000000000e+00 
0.0000000000000000e+00 0.0000000000000000e+00 0.0000000000000000e+00 
0.0000000000000000e+00 0.0000000000000000e+00 0.0000000000000000e+00 
0.0000000000000000e+00 0.0000000000000000e+00 0.0000000000000000e+00 
0.0000000000000000e+00 0.0000000000000000e+00 0.0000000000000000e+00 
0.0000000000000000e+00 0.0000000000000000e+00 0.0000000000000000e+00 
0.0000000000000000e+00 0.0000000000000000e+00 0.0000000000000000e+00 
0.0000000000000000e+00 0.0000000000000000e+00 0.0000000000000000e+00 
0.0000000000000000e+00 0.0000000000000000e+00 0.0000000000000000e+00 
0.0000000000000000e+00 0.0000000000000000e+00 0.0000000000000000e+00 
0.0000000000000000e+00 0.0000000000000000e+00 0.0000000000000000e+00 
0.0000000000000000e+00 0.0000000000000000e+00 0.0000000000000000e+00 
0.0000000000000000e+00 0.0000000000000000e+00 0.0000000000000000e+00 
0.0000000000000000e+00 0.0000000000000000e+00 0.0000000000000000e+00 
0.0000000000000000e+00 0.0000000000000000e+00 0.0000000000000000e+00 
0.0000000000000000e+00 0.0000000000000000e+00 0.0000000000000000e+00 
0.0000000000000000e+00 0.0000000000000000e+00 0.0000000000000000e+00 
0.0000000000000000e+00 0.0000000000000000e+00 0.0000000000000000e+00 
0.0000000000000000e+00 0.0000000000000000e+00 0.0000000000000000e+00 
0.0000000000000000e+00 0.0000000000000000e+00 0.0000000000000000e+00 
0.0000000000000000e+00 0.0000000000000000e+00 0.0000000000000000e+00 
0.0000000000000000e+00 0.0000000000000000e+00 0.0000000000000000e+00 
0.0000000000000000e+00 0.0000000000000000e+00 0.0000000000000000e+00 
0.0000000000000000e+00 0.0000000000000000e+00 0.0000000000000000e+00 
0.0000000000000000e+00 0.0000000000000000e+00 0.0000000000000000e+00 
0.0000000000000000e+00 0.0000000000000000e+00 0.0000000000000000e+00 
0.0000000000000000e+00 0.0000000000000000e+00 0.0000000000000000e+00 
0.0000000000000000e+00 0.0000000000000000e+00 0.0000000000000000e+00 
0.0000000000000000e+00 0.0000000000000000e+00 0.0000000000000000e+00 
0.0000000000000000e+00 0.0000000000000000e+00 0.0000000000000000e+00 
0.0000000000000000e+00 0.0000000000000000e+00 0.0000000000000000e+00 
0.0000000000000000e+00 0.0000000000000000e+00 0.0000000000000000e+00 
0.0000000000000000e+00 0.0000000000000000e+00 0.0000000000000000e+00 
0.0000000000000000e+00 0.0000000000000000e+00 0.0000000000000000e+00 
0.0000000000000000e+00 0.0000000000000000e+00 0.0000000000000000e+00 
0.0000000000000000e+00 0.0000000000000000e+00 0.0000000000000000e+00 
0.0000000000000000e+00 0.0000000000000000e+00 0.0000000000000000e+00 
0.0000000000000000e+00 0.0000000000000000e+00 0.0000000000000000e+00 
0.0000000000000000e+00 0.0000000000000000e+00 0.0000000000000000e+00 
0.0000000000000000e+00 0.0000000000000000e+00 0.0000000000000000e+00 
0.0000000000000000e+00 0.0000000000000000e+00 0.0000000000000000e+00 
0.0000000000000000e+00 0.0000000000000000e+00 0.0000000000000000e+00 
0.0000000000000000e+00 0.0000000000000000e+00 0.0000000000000000e+00 
0.0000000000000000e+00 0.0000000000000000e+00 0.0000000000000000e+00 
0.0000000000000000e+00 0.0000000000000000e+00 0.0000000000000000e+00 
0.0000000000000000e+00 0.0000000000000000e+00 0.0000000000000000e+00 
0.0000000000000000e+00 0.0000000000000000e+00 0.0000000000000000e+00 
0.0000000000000000e+00 0.0000000000000000e+00 0.0000000000000000e+00 
0.0000000000000000e+00 0.0000000000000000e+00 0.0000000000000000e+00 
0.0000000000000000e+00 0.0000000000000000e+00 0.0000000000000000e+00 
0.0000000000000000e+00 0.0000000000000000e+00 0.0000000000000000e+00 
0.0000000000000000e+00 0.0000000000000000e+00 0.0000000000000000e+00 
0.0000000000000000e+00 0.0000000000000000e+00 0.0000000000000000e+00 
0.0000000000000000e+00 0.0000000000000000e+00 0.0000000000000000e+00 
0.0000000000000000e+00 0.0000000000000000e+00 0.0000000000000000e+00 
0.0000000000000000e+00 0.0000000000000000e+00 0.0000000000000000e+00 
0.0000000000000000e+00 0.0000000000000000e+00 0.0000000000000000e+00 
0.0000000000000000e+00 0.0000000000000000e+00 0.0000000000000000e+00 
0.0000000000000000e+00 0.0000000000000000e+00 0.0000000000000000e+00 
0.0000000000000000e+00 0.0000000000000000e+00 0.0000000000000000e+00 
0.0000000000000000e+00 0.0000000000000000e+00 0.0000000000000000e+00 
0.0000000000000000e+00 0.0000000000000000e+00 0.0000000000000000e+00 
0.0000000000000000e+00 0.0000000000000000e+00 0.0000000000000000e+00 
0.0000000000000000e+00 0.0000000000000000e+00 0.0000000000000000e+00 
0.0000000000000000e+00 0.0000000000000000e+00 0.0000000000000000e+00 
0.0000000000000000e+00 0.0000000000000000e+00 0.0000000000000000e+00 
0.0000000000000000e+00 0.0000000000000000e+00 0.0000000000000000e+00 
0.0000000000000000e+00 0.0000000000000000e+00 0.0000000000000000e+00 
0.0000000000000000e+00 0.0000000000000000e+00 0.0000000000000000e+00 
0.0000000000000000e+00 0.0000000000000000e+00 0.0000000000000000e+00 
0.0000000000000000e+00 0.0000000000000000e+00 0.0000000000000000e+00 
0.0000000000000000e+00 0.0000000000000000e+00 0.0000000000000000e+00 
0.0000000000000000e+00 0.0000000000000000e+00 0.0000000000000000e+00 
0.0000000000000000e+00 0.0000000000000000e+00 0.0000000000000000e+00 
0.0000000000000000e+00 0.0000000000000000e+00 0.0000000000000000e+00 
0.0000000000000000e+00 0.0000000000000000e+00 0.0000000000000000e+00 
0.0000000000000000e+00 0.0000000000000000e+00 0.0000000000000000e+00 
0.0000000000000000e+00 0.0000000000000000e+00 0.0000000000000000e+00 
0.0000000000000000e+00 0.0000000000000000e+00 0.0000000000000000e+00 
0.0000000000000000e+00 0.0000000000000000e+00 0.0000000000000000e+00 
0.0000000000000000e+00 0.0000000000000000e+00 0.0000000000000000e+00 
0.0000000000000000e+00 0.0000000000000000e+00 0.0000000000000000e+00 
0.0000000000000000e+00 0.0000000000000000e+00 0.0000000000000000e+00 
0.0000000000000000e+00 0.0000000000000000e+00 0.0000000000000000e+00 
0.0000000000000000e+00 0.0000000000000000e+00 0.0000000000000000e+00 

VECTORS Forces0 double
2.5270194769597271e-01 0.0000000000000000e+00 3.8868074433933953e-03 
8.2461754885462180e-01 0.0000000000000000e+00 -2.4312411284023592e-02 
2.5270194802612189e-01 0.0000000000000000e+00 3.8868073710326147e-03 
8.2461754868882964e-01 0.0000000000000000e+00 -2.4312411259835340e-02 
8.0265674132380072e-01 0.0000000000000000e+00 -2.8448323967120364e-02 
8.0265674182133184e-01 0.0000000000000000e+00 -2.8448323919037937e-02 
7.2532033732267986e-01 0.0000000000000000e+00 -3.2012960637579566e-02 
7.2532033798589979e-01 0.0000000000000000e+00 -3.2012960662955406e-02 
7.3800141338758696e-01 0.0000000000000000e+00 -3.3565199825565849e-02 
7.3800141255876095e-01 0.0000000000000000e+00 -3.3565199814680903e-02 
7.3718989284517022e-01 0.0000000000000000e+00 -3.3996701424726508e-02 
7.3718989317652817e-01 0.0000000000000000e+00 -3.3996701449207453e-02 
8.5683896575802088e-01 0.0000000000000000e+00 -3.6327052128417935e-02 
8.5683896608974486e-01 0.0000000000000000e+00 -3.6327052116297665e-02 
7.6988155751971010e-01 0.0000000000000000e+00 -2.6867473749583318e-02 
7.6988155751818677e-01 0.0000000000000000e+00 -2.6867473702048589e-02 
7.9381710333895350e-01 0.0000000000000000e+00 -2.2199059304596383e-02 
7.9381710350492607e-01 0.0000000000000000e+00 -2.2199059279453221e-02 
8.0262651870153123e-01 0.0000000000000000e+00 -1.6883387264632795e-02 
8.0262651820439468e-01 0.0000000000000000e+00 -1.6883387217599109e-02 
9.5021678052229230e-01 0.0000000000000000e+00 -8.8093905420867612e-03 
9.5021677952720018e-01 0.0000000000000000e+00 -8.8093905771572008e-03 
8.6313148893111147e-01 0.0000000000000000e+00 4.6908433245642256e-04 
8.6313149009186729e-01 0.0000000000000000e+00 4.6908433194350939e-04 
8.9044797377186435e-01 0.0000000000000000e+00 6.2351982532082130e-03 
8.9044797443657953e-01 0.0000000000000000e+00 6.2351982529063399e-03 
9.0362427343325546e-01 0.0000000000000000e+00 1.1679722878727235e-02 
9.0362427359886943e-01 0.0000000000000000e+00 1.1679722927224020e-02 
1.0622172268838490e+00 0.0000000000000000e+00 2.0907200459121766e-02 
1.0622172273814048e+00 0.0000000000000000e+00 2.0907200483116711e-02 
9.3627448369161648e-01 0.0000000000000000e+00 1.6643927765520015e-02 
9.3627448385775902e-01 0.0000000000000000e+00 1.6643927777945502e-02 
9.3683395829155225e-01 0.0000000000000000e+00 1.2295312411366078e-02 
9.3683395862406993e-01 0.0000000000000000e+00 1.2295312387258802e-02 
9.2801327886440366e-01 0.0000000000000000e+00 8.4853296861189080e-03 
9.2801328002555716e-01 0.0000000000000000e+00 8.4853296504576441e-03 
1.0282993827501656e+00 0.0000000000000000e+00 -4.9367322553047833e-04 
1.0282993827503182e+00 0.0000000000000000e+00 -4.9367318964364533e-04 
9.5277043471199407e-01 0.0000000000000000e+00 1.9346594769880064e-02 
9.5277043487657798e-01 0.0000000000000000e+00 1.9346594746174790e-02 
1.4387130872652041e-02 0.0000000000000000e+00 1.5253459689627993e+00 
3.3449688419729834e-01 0.0000000000000000e+00 3.7906782935392602e-01 
1.4387131370990952e-02 0.0000000000000000e+00 1.5253459689266544e+00 
3.3449688452914489e-01 0.0000000000000000e+00 3.7906782937814654e-01 
3.0366125210980843e-01 0.0000000000000000e+00 3.7697317220469206e-03 
9.5845715721956315e-01 0.0000000000000000e+00 -2.8409865441986044e-02 
3.0366125161381530e-01 0.0000000000000000e+00 3.7697317102517534e-03 
9.5845715738502313e-01 0.0000000000000000e+00 -2.8409865477656740e-02 
9.3191657231431579e-01 0.0000000000000000e+00 -3.2959741555095838e-02 
9.3191657198261535e-01 0.0000000000000000e+00 -3.2959741578937427e-02 
8.2297354106173870e-01 0.0000000000000000e+00 -3.6482343801935727e-02 
8.2297354039826298e-01 0.0000000000000000e+00 -3.6482343789179458e-02 
8.2096006758994522e-01 0.0000000000000000e+00 -3.7615048247365120e-02 
8.2096006709252556e-01 0.0000000000000000e+00 -3.7615048295107145e-02 
8.0768414587014103e-01 0.0000000000000000e+00 -3.7667106112093215e-02 
8.0768414587013526e-01 0.0000000000000000e+00 -3.7667106088628881e-02 
9.1019437837888451e-01 0.0000000000000000e+00 -3.9020891442060841e-02 
9.1019437871098408e-01 0.0000000000000000e+00 -3.9020891502464530e-02 
7.8445111499979570e-01 0.0000000000000000e+00 -2.7726184747601832e-02 
7.8445111483388497e-01 0.0000000000000000e+00 -2.7726184771298078e-02 
7.8288624869419066e-01 0.0000000000000000e+00 -2.2419542664470323e-02 
7.8288624852826971e-01 0.0000000000000000e+00 -2.2419542676705605e-02 
7.6505978040424227e-01 0.0000000000000000e+00 -1.6547219402750786e-02 
7.6505978073533432e-01 0.0000000000000000e+00 -1.6547219438381819e-02 
8.5346038550442993e-01 0.0000000000000000e+00 -8.2865005421972910e-03 
8.5346038550405878e-01 0.0000000000000000e+00 -8.2865005658400159e-03 
7.2865524987781860e-01 0.0000000000000000e+00 -5.4238187461968601e-05 
7.2865524954577832e-01 0.0000000000000000e+00 -5.4238163013553819e-05 
7.2058349507476160e-01 0.0000000000000000e+00 4.5716044111347017e-03 
7.2058349457727944e-01 0.0000000000000000e+00 4.5716043993418668e-03 
6.9307753487003976e-01 0.0000000000000000e+00 8.7869239984049909e-03 
6.9307753520192716e-01 0.0000000000000000e+00 8.7869239986479667e-03 
7.4948211444464985e-01 0.0000000000000000e+00 1.4709977001495454e-02 
7.4948211427900746e-01 0.0000000000000000e+00 1.4709977013520703e-02 
6.1257308702236901e-01 0.0000000000000000e+00 1.0968778483812665e-02 
6.1257308718818326e-01 0.0000000000000000e+00 1.0968778484218773e-02 
5.7202533670193856e-01 0.0000000000000000e+00 7.7044540985104918e-03 
5.7202533686782620e-01 0.0000000000000000e+00 7.7044540987254882e-03 
5.0477299307272527e-01 0.0000000000000000e+00 5.2547425262386514e-03 
5.0477299274124787e-01 0.0000000000000000e+00 5.2547425025490473e-03 
4.3646274412369429e-01 0.0000000000000000e+00 -6.1804207532775660e-03 
4.3646274428959575e-01 0.0000000000000000e+00 -6.1804207535183378e-03 
1.5867795939894247e-01 0.0000000000000000e+00 2.3630758979341370e-02 
1.5867795923305544e-01 0.0000000000000000e+00 2.3630758955472751e-02 
2.4424340866234483e-02 0.0000000000000000e+00 5.7742798458419631e-01 
2.4424340700381495e-02 0.0000000000000000e+00 5.7742798459632605e-01 

VECTORS Displacements0 double
6.9356603532943773e-310 0.0000000000000000e+00 0.0000000000000000e+00 
8.6609989707670432e-04 0.0000000000000000e+00 -8.6644758611718507e-04 
0.0000000000000000e+00 0.0000000000000000e+00 0.0000000000000000e+00 
8.6609989717367970e-04 0.0000000000000000e+00 -8.6644758608860084e-04 
2.3642546014091530e-03 0.0000000000000000e+00 -1.5261757618229054e-03 
2.3642546014790993e-03 0.0000000000000000e+00 -1.5261757616696881e-03 
4.4313279807975279e-03 0.0000000000000000e+00 -1.9363026301043645e-03 
4.4313279805261330e-03 0.0000000000000000e+00 -1.9363026298509179e-03 
6.8217386501825189e-03 0.0000000000000000e+00 -2.1300391379607737e-03 
6.8217386496653883e-03 0.0000000000000000e+00 -2.1300391376755210e-03 
9.3376109320042946e-03 0.0000000000000000e+00 -2.1284006250687835e-03 
9.3376109310912819e-03 0.0000000000000000e+00 -2.1284006248779878e-03 
1.1784880387878463e-02 0.0000000000000000e+00 -1.9639563473553253e-03 
1.1784880386874861e-02 0.0000000000000000e+00 -1.9639563473853416e-03 
1.4009359419490169e-02 0.0000000000000000e+00 -1.6646613391475683e-03 
1.4009359418692455e-02 0.0000000000000000e+00 -1.6646613393355122e-03 
1.5908715277435505e-02 0.0000000000000000e+00 -1.2638394337226352e-03 
1.5908715276979731e-02 0.0000000000000000e+00 -1.2638394339405099e-03 
1.7410760824154135e-02 0.0000000000000000e+00 -7.9520430193025769e-04 
1.7410760823796438e-02 0.0000000000000000e+00 -7.9520430216241649e-04 
1.8467111169813696e-02 0.0000000000000000e+00 -2.8115801812958799e-04 
1.8467111169743766e-02 0.0000000000000000e+00 -2.8115801833505303e-04 
1.8999083942124687e-02 0.0000000000000000e+00 2.3552184772230266e-04 
1.8999083942377565e-02 0.0000000000000000e+00 2.3552184771474127e-04 
1.9068821440144622e-02 0.0000000000000000e+00 6.9732472897591330e-04 
1.9068821440134741e-02 0.0000000000000000e+00 6.9732472913261901e-04 
1.8772845412706941e-02 0.0000000000000000e+00 1.0846421879933629e-03 
1.8772845412381885e-02 0.0000000000000000e+00 1.0846421881176534e-03 
1.8161713341351825e-02 0.0000000000000000e+00 1.3870163792643203e-03 
1.8161713341088914e-02 0.0000000000000000e+00 1.3870163793057565e-03 
1.7276183837409750e-02 0.0000000000000000e+00 1.5437652322726201e-03 
1.7276183837148042e-02 0.0000000000000000e+00 1.5437652322707876e-03 
1.6346839111085681e-02 0.0000000000000000e+00 1.4965067853468577e-03 
1.6346839110768029e-02 0.0000000000000000e+00 1.4965067852468592e-03 
1.5663733372060666e-02 0.0000000000000000e+00 1.2891023836821950e-03 
1.5663733371911116e-02 0.0000000000000000e+00 1.2891023834276461e-03 
1.5373314617361449e-02 0.0000000000000000e+00 1.0523924208925754e-03 
1.5373314617525372e-02 0.0000000000000000e+00 1.0523924205308403e-03 
1.5356369684336922e-02 0.0000000000000000e+00 9.0593844699592770e-04 
1.5356369684901965e-02 0.0000000000000000e+00 9.0593844656121228e-04 
1.5394074373340420e-02 0.0000000000000000e+00 8.8922846375111069e-04 
1.5396581260085166e-02 0.0000000000000000e+00 8.6759697875595572e-04 
1.5394074374365333e-02 0.0000000000000000e+00 8.8922846372105964e-04 
1.5396581261217835e-02 0.0000000000000000e+00 8.6759697823697959e-04 
0.0000000000000000e+00 0.0000000000000000e+00 0.0000000000000000e+00 
9.6550269480628914e-04 0.0000000000000000e+00 9.7841069243799223e-04 
0.0000000000000000e+00 0.0000000000000000e+00 0.0000000000000000e+00 
9.6550269481243656e-04 0.0000000000000000e+00 9.7841069244081983e-04 
2.5012212969325225e-03 0.0000000000000000e+00 1.7324294679143561e-03 
2.5012212968986425e-03 0.0000000000000000e+00 1.7324294677968214e-03 
4.6072901599878806e-03 0.0000000000000000e+00 2.2246456486463336e-03 
4.6072901598162895e-03 0.0000000000000000e+00 2.2246456484618987e-03 
7.0295965392089274e-03 0.0000000000000000e+00 2.4968161748680517e-03 
7.0295965386751365e-03 0.0000000000000000e+00 2.4968161746652482e-03 
9.5479278262067032e-03 0.0000000000000000e+00 2.5744424208476386e-03 
9.5479278252734411e-03 0.0000000000000000e+00 2.5744424207292450e-03 
1.1979632435809393e-02 0.0000000000000000e+00 2.4935456789462840e-03 
1.1979632434779132e-02 0.0000000000000000e+00 2.4935456790339777e-03 
1.4182277745645705e-02 0.0000000000000000e+00 2.2907321251737036e-03 
1.4182277744809657e-02 0.0000000000000000e+00 2.2907321253970454e-03 
1.6050946283200869e-02 0.0000000000000000e+00 2.0039338015546029e-03 
1.6050946282749806e-02 0.0000000000000000e+00 2.0039338017311297e-03 
1.7521840496519954e-02 0.0000000000000000e+00 1.6612902525779717e-03 
1.7521840496159440e-02 0.0000000000000000e+00 1.6612902527513203e-03 
1.8552712862711568e-02 0.0000000000000000e+00 1.2777048518691867e-03 
1.8552712862695015e-02 0.0000000000000000e+00 1.2777048520496313e-03 
1.9070370509204897e-02 0.0000000000000000e+00 8.9320653639490745e-04 
1.9070370509307950e-02 0.0000000000000000e+00 8.9320653640305588e-04 
1.9130190027408785e-02 0.0000000000000000e+00 5.5843056427002052e-04 
1.9130190027321903e-02 0.0000000000000000e+00 5.5843056413299732e-04 
1.8831185511057922e-02 0.0000000000000000e+00 2.8358404590825856e-04 
1.8831185510728148e-02 0.0000000000000000e+00 2.8358404582240043e-04 
1.8217662953052147e-02 0.0000000000000000e+00 7.2162518833155791e-05 
1.8217662952761945e-02 0.0000000000000000e+00 7.2162518844633237e-05 
1.7328209411498048e-02 0.0000000000000000e+00 -1.6166656611697415e-05 
1.7328209411235720e-02 0.0000000000000000e+00 -1.6166656599882850e-05 
1.6390704916393307e-02 0.0000000000000000e+00 8.9022798070106829e-05 
1.6390704916071353e-02 0.0000000000000000e+00 8.9022798146122682e-05 
1.5705293584428816e-02 0.0000000000000000e+00 3.5321851945154268e-04 
1.5705293584241938e-02 0.0000000000000000e+00 3.5321851967884383e-04 
1.5401328306398877e-02 0.0000000000000000e+00 6.3713598783688829e-04 
1.5401328306580035e-02 0.0000000000000000e+00 6.3713598814600148e-04 
1.5372193706599634e-02 0.0000000000000000e+00 8.2125475143907350e-04 
1.5372193707136632e-02 0.0000000000000000e+00 8.2125475175963522e-04 
1.5408482570796786e-02 0.0000000000000000e+00 8.8754965652906154e-04 
1.5408482571738545e-02 0.0000000000000000e+00 8.8754965685638434e-04 

