# vtk DataFile Version 2.0

ASCII

DATASET UNSTRUCTURED_GRID

POINTS 86 float 

5.0000000000000003e-02  0.0000000000000000e+00  0.0000000000000000e+00
5.0000000000000003e-02  0.0000000000000000e+00  5.0000000000000003e-02
5.0000000000000003e-02  2.9999999999999999e-01  0.0000000000000000e+00
5.0000000000000003e-02  2.9999999999999999e-01  5.0000000000000003e-02
5.0000000000000003e-02  0.0000000000000000e+00  1.0000000000000001e-01
5.0000000000000003e-02  2.9999999999999999e-01  1.0000000000000001e-01
5.0000000000000003e-02  0.0000000000000000e+00  1.4999999999999999e-01
5.0000000000000003e-02  2.9999999999999999e-01  1.4999999999999999e-01
5.0000000000000003e-02  0.0000000000000000e+00  2.0000000000000001e-01
5.0000000000000003e-02  2.9999999999999999e-01  2.0000000000000001e-01
5.0000000000000003e-02  0.0000000000000000e+00  2.5000000000000000e-01
5.0000000000000003e-02  2.9999999999999999e-01  2.5000000000000000e-01
5.0000000000000003e-02  0.0000000000000000e+00  2.9999999999999999e-01
5.0000000000000003e-02  2.9999999999999999e-01  2.9999999999999999e-01
5.0000000000000003e-02  0.0000000000000000e+00  3.4999999999999998e-01
5.0000000000000003e-02  2.9999999999999999e-01  3.4999999999999998e-01
5.0000000000000003e-02  0.0000000000000000e+00  4.0000000000000002e-01
5.0000000000000003e-02  2.9999999999999999e-01  4.0000000000000002e-01
5.0000000000000003e-02  0.0000000000000000e+00  4.5000000000000001e-01
5.0000000000000003e-02  2.9999999999999999e-01  4.5000000000000001e-01
5.0000000000000003e-02  0.0000000000000000e+00  5.0000000000000000e-01
5.0000000000000003e-02  2.9999999999999999e-01  5.0000000000000000e-01
5.0000000000000003e-02  0.0000000000000000e+00  5.5000000000000004e-01
5.0000000000000003e-02  2.9999999999999999e-01  5.5000000000000004e-01
5.0000000000000003e-02  0.0000000000000000e+00  5.9999999999999998e-01
5.0000000000000003e-02  2.9999999999999999e-01  5.9999999999999998e-01
5.0000000000000003e-02  0.0000000000000000e+00  6.5000000000000002e-01
5.0000000000000003e-02  2.9999999999999999e-01  6.5000000000000002e-01
5.0000000000000003e-02  0.0000000000000000e+00  6.9999999999999996e-01
5.0000000000000003e-02  2.9999999999999999e-01  6.9999999999999996e-01
5.0000000000000003e-02  0.0000000000000000e+00  7.5000000000000000e-01
5.0000000000000003e-02  2.9999999999999999e-01  7.5000000000000000e-01
5.0000000000000003e-02  0.0000000000000000e+00  8.0000000000000004e-01
5.0000000000000003e-02  2.9999999999999999e-01  8.0000000000000004e-01
5.0000000000000003e-02  0.0000000000000000e+00  8.4999999999999998e-01
5.0000000000000003e-02  2.9999999999999999e-01  8.4999999999999998e-01
5.0000000000000003e-02  0.0000000000000000e+00  9.0000000000000002e-01
5.0000000000000003e-02  2.9999999999999999e-01  9.0000000000000002e-01
5.0000000000000003e-02  0.0000000000000000e+00  9.4999999999999996e-01
5.0000000000000003e-02  2.9999999999999999e-01  9.4999999999999996e-01
0.0000000000000000e+00  0.0000000000000000e+00  1.0000000000000000e+00
5.0000000000000003e-02  0.0000000000000000e+00  1.0000000000000000e+00
0.0000000000000000e+00  2.9999999999999999e-01  1.0000000000000000e+00
5.0000000000000003e-02  2.9999999999999999e-01  1.0000000000000000e+00
-5.0000000000000003e-02  0.0000000000000000e+00  0.0000000000000000e+00
-5.0000000000000003e-02  0.0000000000000000e+00  5.0000000000000003e-02
-5.0000000000000003e-02  2.9999999999999999e-01  0.0000000000000000e+00
-5.0000000000000003e-02  2.9999999999999999e-01  5.0000000000000003e-02
-5.0000000000000003e-02  0.0000000000000000e+00  1.0000000000000001e-01
-5.0000000000000003e-02  2.9999999999999999e-01  1.0000000000000001e-01
-5.0000000000000003e-02  0.0000000000000000e+00  1.4999999999999999e-01
-5.0000000000000003e-02  2.9999999999999999e-01  1.4999999999999999e-01
-5.0000000000000003e-02  0.0000000000000000e+00  2.0000000000000001e-01
-5.0000000000000003e-02  2.9999999999999999e-01  2.0000000000000001e-01
-5.0000000000000003e-02  0.0000000000000000e+00  2.5000000000000000e-01
-5.0000000000000003e-02  2.9999999999999999e-01  2.5000000000000000e-01
-5.0000000000000003e-02  0.0000000000000000e+00  2.9999999999999999e-01
-5.0000000000000003e-02  2.9999999999999999e-01  2.9999999999999999e-01
-5.0000000000000003e-02  0.0000000000000000e+00  3.4999999999999998e-01
-5.0000000000000003e-02  2.9999999999999999e-01  3.4999999999999998e-01
-5.0000000000000003e-02  0.0000000000000000e+00  4.0000000000000002e-01
-5.0000000000000003e-02  2.9999999999999999e-01  4.0000000000000002e-01
-5.0000000000000003e-02  0.0000000000000000e+00  4.5000000000000001e-01
-5.0000000000000003e-02  2.9999999999999999e-01  4.5000000000000001e-01
-5.0000000000000003e-02  0.0000000000000000e+00  5.0000000000000000e-01
-5.0000000000000003e-02  2.9999999999999999e-01  5.0000000000000000e-01
-5.0000000000000003e-02  0.0000000000000000e+00  5.5000000000000004e-01
-5.0000000000000003e-02  2.9999999999999999e-01  5.5000000000000004e-01
-5.0000000000000003e-02  0.0000000000000000e+00  5.9999999999999998e-01
-5.0000000000000003e-02  2.9999999999999999e-01  5.9999999999999998e-01
-5.0000000000000003e-02  0.0000000000000000e+00  6.5000000000000002e-01
-5.0000000000000003e-02  2.9999999999999999e-01  6.5000000000000002e-01
-5.0000000000000003e-02  0.0000000000000000e+00  6.9999999999999996e-01
-5.0000000000000003e-02  2.9999999999999999e-01  6.9999999999999996e-01
-5.0000000000000003e-02  0.0000000000000000e+00  7.5000000000000000e-01
-5.0000000000000003e-02  2.9999999999999999e-01  7.5000000000000000e-01
-5.0000000000000003e-02  0.0000000000000000e+00  8.0000000000000004e-01
-5.0000000000000003e-02  2.9999999999999999e-01  8.0000000000000004e-01
-5.0000000000000003e-02  0.0000000000000000e+00  8.4999999999999998e-01
-5.0000000000000003e-02  2.9999999999999999e-01  8.4999999999999998e-01
-5.0000000000000003e-02  0.0000000000000000e+00  9.0000000000000002e-01
-5.0000000000000003e-02  2.9999999999999999e-01  9.0000000000000002e-01
-5.0000000000000003e-02  0.0000000000000000e+00  9.4999999999999996e-01
-5.0000000000000003e-02  2.9999999999999999e-01  9.4999999999999996e-01
-5.0000000000000003e-02  0.0000000000000000e+00  1.0000000000000000e+00
-5.0000000000000003e-02  2.9999999999999999e-01  1.0000000000000000e+00

CELLS 0 0


CELL_TYPES 0


POINT_DATA 86

VECTORS VertexNormals float

0.0000000000000000e+00 0.0000000000000000e+00 0.0000000000000000e+00 
0.0000000000000000e+00 0.0000000000000000e+00 0.0000000000000000e+00 
0.0000000000000000e+00 0.0000000000000000e+00 0.0000000000000000e+00 
0.0000000000000000e+00 0.0000000000000000e+00 0.0000000000000000e+00 
0.0000000000000000e+00 0.0000000000000000e+00 0.0000000000000000e+00 
0.0000000000000000e+00 0.0000000000000000e+00 0.0000000000000000e+00 
0.0000000000000000e+00 0.0000000000000000e+00 0.0000000000000000e+00 
0.0000000000000000e+00 0.0000000000000000e+00 0.0000000000000000e+00 
0.0000000000000000e+00 0.0000000000000000e+00 0.0000000000000000e+00 
0.0000000000000000e+00 0.0000000000000000e+00 0.0000000000000000e+00 
0.0000000000000000e+00 0.0000000000000000e+00 0.0000000000000000e+00 
0.0000000000000000e+00 0.0000000000000000e+00 0.0000000000000000e+00 
0.0000000000000000e+00 0.0000000000000000e+00 0.0000000000000000e+00 
0.0000000000000000e+00 0.0000000000000000e+00 0.0000000000000000e+00 
0.0000000000000000e+00 0.0000000000000000e+00 0.0000000000000000e+00 
0.0000000000000000e+00 0.0000000000000000e+00 0.0000000000000000e+00 
0.0000000000000000e+00 0.0000000000000000e+00 0.0000000000000000e+00 
0.0000000000000000e+00 0.0000000000000000e+00 0.0000000000000000e+00 
0.0000000000000000e+00 0.0000000000000000e+00 0.0000000000000000e+00 
0.0000000000000000e+00 0.0000000000000000e+00 0.0000000000000000e+00 
0.0000000000000000e+00 0.0000000000000000e+00 0.0000000000000000e+00 
0.0000000000000000e+00 0.0000000000000000e+00 0.0000000000000000e+00 
0.0000000000000000e+00 0.0000000000000000e+00 0.0000000000000000e+00 
0.0000000000000000e+00 0.0000000000000000e+00 0.0000000000000000e+00 
0.0000000000000000e+00 0.0000000000000000e+00 0.0000000000000000e+00 
0.0000000000000000e+00 0.0000000000000000e+00 0.0000000000000000e+00 
0.0000000000000000e+00 0.0000000000000000e+00 0.0000000000000000e+00 
0.0000000000000000e+00 0.0000000000000000e+00 0.0000000000000000e+00 
0.0000000000000000e+00 0.0000000000000000e+00 0.0000000000000000e+00 
0.0000000000000000e+00 0.0000000000000000e+00 0.0000000000000000e+00 
0.0000000000000000e+00 0.0000000000000000e+00 0.0000000000000000e+00 
0.0000000000000000e+00 0.0000000000000000e+00 0.0000000000000000e+00 
0.0000000000000000e+00 0.0000000000000000e+00 0.0000000000000000e+00 
0.0000000000000000e+00 0.0000000000000000e+00 0.0000000000000000e+00 
0.0000000000000000e+00 0.0000000000000000e+00 0.0000000000000000e+00 
0.0000000000000000e+00 0.0000000000000000e+00 0.0000000000000000e+00 
0.0000000000000000e+00 0.0000000000000000e+00 0.0000000000000000e+00 
0.0000000000000000e+00 0.0000000000000000e+00 0.0000000000000000e+00 
0.0000000000000000e+00 0.0000000000000000e+00 0.0000000000000000e+00 
0.0000000000000000e+00 0.0000000000000000e+00 0.0000000000000000e+00 
0.0000000000000000e+00 0.0000000000000000e+00 0.0000000000000000e+00 
0.0000000000000000e+00 0.0000000000000000e+00 0.0000000000000000e+00 
0.0000000000000000e+00 0.0000000000000000e+00 0.0000000000000000e+00 
0.0000000000000000e+00 0.0000000000000000e+00 0.0000000000000000e+00 
0.0000000000000000e+00 0.0000000000000000e+00 0.0000000000000000e+00 
0.0000000000000000e+00 0.0000000000000000e+00 0.0000000000000000e+00 
0.0000000000000000e+00 0.0000000000000000e+00 0.0000000000000000e+00 
0.0000000000000000e+00 0.0000000000000000e+00 0.0000000000000000e+00 
0.0000000000000000e+00 0.0000000000000000e+00 0.0000000000000000e+00 
0.0000000000000000e+00 0.0000000000000000e+00 0.0000000000000000e+00 
0.0000000000000000e+00 0.0000000000000000e+00 0.0000000000000000e+00 
0.0000000000000000e+00 0.0000000000000000e+00 0.0000000000000000e+00 
0.0000000000000000e+00 0.0000000000000000e+00 0.0000000000000000e+00 
0.0000000000000000e+00 0.0000000000000000e+00 0.0000000000000000e+00 
0.0000000000000000e+00 0.0000000000000000e+00 0.0000000000000000e+00 
0.0000000000000000e+00 0.0000000000000000e+00 0.0000000000000000e+00 
0.0000000000000000e+00 0.0000000000000000e+00 0.0000000000000000e+00 
0.0000000000000000e+00 0.0000000000000000e+00 0.0000000000000000e+00 
0.0000000000000000e+00 0.0000000000000000e+00 0.0000000000000000e+00 
0.0000000000000000e+00 0.0000000000000000e+00 0.0000000000000000e+00 
0.0000000000000000e+00 0.0000000000000000e+00 0.0000000000000000e+00 
0.0000000000000000e+00 0.0000000000000000e+00 0.0000000000000000e+00 
0.0000000000000000e+00 0.0000000000000000e+00 0.0000000000000000e+00 
0.0000000000000000e+00 0.0000000000000000e+00 0.0000000000000000e+00 
0.0000000000000000e+00 0.0000000000000000e+00 0.0000000000000000e+00 
0.0000000000000000e+00 0.0000000000000000e+00 0.0000000000000000e+00 
0.0000000000000000e+00 0.0000000000000000e+00 0.0000000000000000e+00 
0.0000000000000000e+00 0.0000000000000000e+00 0.0000000000000000e+00 
0.0000000000000000e+00 0.0000000000000000e+00 0.0000000000000000e+00 
0.0000000000000000e+00 0.0000000000000000e+00 0.0000000000000000e+00 
0.0000000000000000e+00 0.0000000000000000e+00 0.0000000000000000e+00 
0.0000000000000000e+00 0.0000000000000000e+00 0.0000000000000000e+00 
0.0000000000000000e+00 0.0000000000000000e+00 0.0000000000000000e+00 
0.0000000000000000e+00 0.0000000000000000e+00 0.0000000000000000e+00 
0.0000000000000000e+00 0.0000000000000000e+00 0.0000000000000000e+00 
0.0000000000000000e+00 0.0000000000000000e+00 0.0000000000000000e+00 
0.0000000000000000e+00 0.0000000000000000e+00 0.0000000000000000e+00 
0.0000000000000000e+00 0.0000000000000000e+00 0.0000000000000000e+00 
0.0000000000000000e+00 0.0000000000000000e+00 0.0000000000000000e+00 
0.0000000000000000e+00 0.0000000000000000e+00 0.0000000000000000e+00 
0.0000000000000000e+00 0.0000000000000000e+00 0.0000000000000000e+00 
0.0000000000000000e+00 0.0000000000000000e+00 0.0000000000000000e+00 
0.0000000000000000e+00 0.0000000000000000e+00 0.0000000000000000e+00 
0.0000000000000000e+00 0.0000000000000000e+00 0.0000000000000000e+00 
0.0000000000000000e+00 0.0000000000000000e+00 0.0000000000000000e+00 
0.0000000000000000e+00 0.0000000000000000e+00 0.0000000000000000e+00 

VECTORS Forces0 float
1.9942151629261406e-01 0.0000000000000000e+00 1.4858141118766833e-03 
6.7243594798368955e-01 0.0000000000000000e+00 -2.7365439687329362e-02 
1.9942151614528852e-01 0.0000000000000000e+00 1.4858141129167324e-03 
6.7243594783642402e-01 0.0000000000000000e+00 -2.7365439688396592e-02 
6.4617485337416103e-01 0.0000000000000000e+00 -3.7497105125054844e-02 
6.4617485366905503e-01 0.0000000000000000e+00 -3.7497105135768705e-02 
5.8563147872318000e-01 0.0000000000000000e+00 -4.3813387562587736e-02 
5.8563147916508640e-01 0.0000000000000000e+00 -4.3813387552101055e-02 
5.9707749722078707e-01 0.0000000000000000e+00 -4.8083253351323567e-02 
5.9707749692603862e-01 0.0000000000000000e+00 -4.8083253368809635e-02 
5.9431224025771368e-01 0.0000000000000000e+00 -5.0676125451604999e-02 
5.9431223996279214e-01 0.0000000000000000e+00 -5.0676125387646299e-02 
6.8776298108457934e-01 0.0000000000000000e+00 -6.0247583917092097e-02 
6.8776298137924952e-01 0.0000000000000000e+00 -6.0247583948456064e-02 
6.1950452825895985e-01 0.0000000000000000e+00 -5.4481887496423749e-02 
6.1950452855353089e-01 0.0000000000000000e+00 -5.4481887490343162e-02 
6.4162129560288594e-01 0.0000000000000000e+00 -5.4603993051947304e-02 
6.4162129516110145e-01 0.0000000000000000e+00 -5.4603993011260343e-02 
6.4855774955810785e-01 0.0000000000000000e+00 -5.2850983903196307e-02 
6.4855775014760841e-01 0.0000000000000000e+00 -5.2850983870545896e-02 
7.7129697897865446e-01 0.0000000000000000e+00 -5.2996850176682216e-02 
7.7129697838932221e-01 0.0000000000000000e+00 -5.2996850177907590e-02 
7.0476820896409786e-01 0.0000000000000000e+00 -3.3611495892899891e-02 
7.0476820807988905e-01 0.0000000000000000e+00 -3.3611495904804931e-02 
7.2605027467612160e-01 0.0000000000000000e+00 -2.3716154742907981e-02 
7.2605027452823301e-01 0.0000000000000000e+00 -2.3716154743067663e-02 
7.3253981479305874e-01 0.0000000000000000e+00 -1.3222270519889258e-02 
7.3253981508798993e-01 0.0000000000000000e+00 -1.3222270518007012e-02 
8.5009017948367227e-01 0.0000000000000000e+00 -2.0341147261460969e-04 
8.5009017918878160e-01 0.0000000000000000e+00 -2.0341148563632935e-04 
7.4314136955718890e-01 0.0000000000000000e+00 1.1369195140167139e-02 
7.4314136911500006e-01 0.0000000000000000e+00 1.1369195126268791e-02 
7.4019556977401879e-01 0.0000000000000000e+00 1.6944634779228886e-02 
7.4019556903768668e-01 0.0000000000000000e+00 1.6944634772554871e-02 
7.2763838049827578e-01 0.0000000000000000e+00 2.2532357280271909e-02 
7.2763838005639514e-01 0.0000000000000000e+00 2.2532357308686978e-02 
8.0156481943014213e-01 0.0000000000000000e+00 2.4641470159750500e-02 
8.0156481913524635e-01 0.0000000000000000e+00 2.4641470172245585e-02 
7.5696146177696855e-01 0.0000000000000000e+00 3.9788824328704495e-02 
7.5696146162945399e-01 0.0000000000000000e+00 3.9788824340614995e-02 
-2.6914484617932298e-02 0.0000000000000000e+00 1.2161680415668930e+00 
2.5584535647343121e-01 0.0000000000000000e+00 3.1165839270018003e-01 
-2.6914484765135995e-02 0.0000000000000000e+00 1.2161680415850178e+00 
2.5584535588328300e-01 0.0000000000000000e+00 3.1165839270666784e-01 
3.0036143214247779e-01 0.0000000000000000e+00 -5.4364893138690931e-04 
9.3432079445263572e-01 0.0000000000000000e+00 -3.5760943506540833e-02 
3.0036143243663499e-01 0.0000000000000000e+00 -5.4364893057390925e-04 
9.3432079415799751e-01 0.0000000000000000e+00 -3.5760943482355409e-02 
9.1239030997775739e-01 0.0000000000000000e+00 -5.2841856191967906e-02 
9.1239031041985619e-01 0.0000000000000000e+00 -5.2841856199286059e-02 
8.0326735541089822e-01 0.0000000000000000e+00 -6.0152171714506840e-02 
8.0326735482113909e-01 0.0000000000000000e+00 -6.0152171728424728e-02 
7.9980695828890136e-01 0.0000000000000000e+00 -6.4534886959477303e-02 
7.9980695843623983e-01 0.0000000000000000e+00 -6.4534886923509990e-02 
7.8833516456739849e-01 0.0000000000000000e+00 -6.7480614624922552e-02 
7.8833516471509957e-01 0.0000000000000000e+00 -6.7480614624335619e-02 
8.9020232162835167e-01 0.0000000000000000e+00 -7.8484952081005074e-02 
8.9020232177575476e-01 0.0000000000000000e+00 -7.8484952086986012e-02 
7.6384015682151873e-01 0.0000000000000000e+00 -6.7688337743276858e-02 
7.6384015623209445e-01 0.0000000000000000e+00 -6.7688337755761913e-02 
7.5869773058797962e-01 0.0000000000000000e+00 -6.5202293243200662e-02 
7.5869773088273218e-01 0.0000000000000000e+00 -6.5202293224452729e-02 
7.4099038874360257e-01 0.0000000000000000e+00 -6.1067598985304637e-02 
7.4099038889123015e-01 0.0000000000000000e+00 -6.1067598974764874e-02 
8.2574349687259618e-01 0.0000000000000000e+00 -5.7412170305950395e-02 
8.2574349598834207e-01 0.0000000000000000e+00 -5.7412170306380302e-02 
7.0434856930486467e-01 0.0000000000000000e+00 -3.4156636427168430e-02 
7.0434856945243529e-01 0.0000000000000000e+00 -3.4156636432522293e-02 
6.9655257060732967e-01 0.0000000000000000e+00 -2.3549473412115770e-02 
6.9655257090193745e-01 0.0000000000000000e+00 -2.3549473400280733e-02 
6.7342368565187238e-01 0.0000000000000000e+00 -1.2560804179757258e-02 
6.7342368579938661e-01 0.0000000000000000e+00 -1.2560804192486796e-02 
7.3212049678717028e-01 0.0000000000000000e+00 -3.4729371467767515e-04 
7.3212049693467729e-01 0.0000000000000000e+00 -3.4729371509884151e-04 
5.9883410928062619e-01 0.0000000000000000e+00 9.1004287652851762e-03 
5.9883410913314017e-01 0.0000000000000000e+00 9.1004287652249691e-03 
5.6220993673922603e-01 0.0000000000000000e+00 1.2669696064699469e-02 
5.6220993688662679e-01 0.0000000000000000e+00 1.2669696071275757e-02 
5.0449323218261655e-01 0.0000000000000000e+00 1.6115141681960377e-02 
5.0449323232988530e-01 0.0000000000000000e+00 1.6115141693899247e-02 
4.5438447265079840e-01 0.0000000000000000e+00 9.9623104650521412e-03 
4.5438447265104787e-01 0.0000000000000000e+00 9.9623104650389937e-03 
1.9596747631105554e-01 0.0000000000000000e+00 2.6215862104944771e-02 
1.9596747601634154e-01 0.0000000000000000e+00 2.6215862110450308e-02 
3.2133441414066592e-02 0.0000000000000000e+00 4.6479184846290011e-01 
3.2133441266520991e-02 0.0000000000000000e+00 4.6479184846940536e-01 

VECTORS Displacements0 float
6.9356603532943773e-310 0.0000000000000000e+00 0.0000000000000000e+00 
1.3437359522910073e-03 0.0000000000000000e+00 -1.4982739923322180e-03 
0.0000000000000000e+00 0.0000000000000000e+00 0.0000000000000000e+00 
1.3437359522247251e-03 0.0000000000000000e+00 -1.4982739923448001e-03 
3.6651835285149018e-03 0.0000000000000000e+00 -2.7339761892649210e-03 
3.6651835283503451e-03 0.0000000000000000e+00 -2.7339761893381185e-03 
6.9584604629101482e-03 0.0000000000000000e+00 -3.6534818885557247e-03 
6.9584604628582080e-03 0.0000000000000000e+00 -3.6534818887615306e-03 
1.0854288872749553e-02 0.0000000000000000e+00 -4.3575344078446666e-03 
1.0854288872956629e-02 0.0000000000000000e+00 -4.3575344081223750e-03 
1.5162631035975142e-02 0.0000000000000000e+00 -4.9124313086167043e-03 
1.5162631036525759e-02 0.0000000000000000e+00 -4.9124313088601320e-03 
1.9765567825449418e-02 0.0000000000000000e+00 -5.3525623265671405e-03 
1.9765567826270224e-02 0.0000000000000000e+00 -5.3525623267356168e-03 
2.4567272961744817e-02 0.0000000000000000e+00 -5.6542773951016286e-03 
2.4567272962617015e-02 0.0000000000000000e+00 -5.6542773951658715e-03 
2.9411241146170278e-02 0.0000000000000000e+00 -5.7400691510352733e-03 
2.9411241146931194e-02 0.0000000000000000e+00 -5.7400691509667083e-03 
3.4007916324544481e-02 0.0000000000000000e+00 -5.5289680068394730e-03 
3.4007916325240514e-02 0.0000000000000000e+00 -5.5289680066454155e-03 
3.8002202230544881e-02 0.0000000000000000e+00 -5.0241803941973220e-03 
3.8002202230913454e-02 0.0000000000000000e+00 -5.0241803939599693e-03 
4.1139650401359841e-02 0.0000000000000000e+00 -4.3325279973530292e-03 
4.1139650401395410e-02 0.0000000000000000e+00 -4.3325279971684399e-03 
4.3391252346011294e-02 0.0000000000000000e+00 -3.5801968802707143e-03 
4.3391252345838550e-02 0.0000000000000000e+00 -3.5801968801614931e-03 
4.4833281415693989e-02 0.0000000000000000e+00 -2.8307100807878531e-03 
4.4833281415447492e-02 0.0000000000000000e+00 -2.8307100807545642e-03 
4.5505945952964574e-02 0.0000000000000000e+00 -2.1118688451484289e-03 
4.5505945952766441e-02 0.0000000000000000e+00 -2.1118688452169618e-03 
4.5445426522553192e-02 0.0000000000000000e+00 -1.4750771922625164e-03 
4.5445426522614060e-02 0.0000000000000000e+00 -1.4750771924463093e-03 
4.4791596938966838e-02 0.0000000000000000e+00 -9.8213122277399025e-04 
4.4791596939434797e-02 0.0000000000000000e+00 -9.8213122288124321e-04 
4.3752399749415027e-02 0.0000000000000000e+00 -6.5465278863891831e-04 
4.3752399750035614e-02 0.0000000000000000e+00 -6.5465278842132956e-04 
4.2513264863408805e-02 0.0000000000000000e+00 -4.6321137705687682e-04 
4.2513264863568996e-02 0.0000000000000000e+00 -4.6321137655266014e-04 
4.1168582150994178e-02 0.0000000000000000e+00 -3.6910345135919066e-04 
4.1168582150552364e-02 0.0000000000000000e+00 -3.6910345079085925e-04 
3.9817540244888261e-02 0.0000000000000000e+00 -1.6923495613615554e-03 
3.9796662361152563e-02 0.0000000000000000e+00 -3.4993735923399328e-04 
3.9817540243897782e-02 0.0000000000000000e+00 -1.6923495613502949e-03 
3.9796662360158067e-02 0.0000000000000000e+00 -3.4993735870163619e-04 
0.0000000000000000e+00 0.0000000000000000e+00 0.0000000000000000e+00 
1.3979363952294486e-03 0.0000000000000000e+00 1.4240424965015739e-03 
0.0000000000000000e+00 0.0000000000000000e+00 0.0000000000000000e+00 
1.3979363951627168e-03 0.0000000000000000e+00 1.4240424964624806e-03 
3.8202797470038314e-03 0.0000000000000000e+00 2.5294294993470261e-03 
3.8202797468917201e-03 0.0000000000000000e+00 2.5294294993577363e-03 
7.2077735976847643e-03 0.0000000000000000e+00 3.2307530737164087e-03 
7.2077735976093611e-03 0.0000000000000000e+00 3.2307530738693887e-03 
1.1182170102206139e-02 0.0000000000000000e+00 3.6330942914182406e-03 
1.1182170102476366e-02 0.0000000000000000e+00 3.6330942916473819e-03 
1.5551290363124895e-02 0.0000000000000000e+00 3.8165764166482666e-03 
1.5551290363758789e-02 0.0000000000000000e+00 3.8165764168281656e-03 
2.0191070379248631e-02 0.0000000000000000e+00 3.8314009986887393e-03 
2.0191070380046496e-02 0.0000000000000000e+00 3.8314009987634344e-03 
2.5000581227203885e-02 0.0000000000000000e+00 3.6702178855024590e-03 
2.5000581228057241e-02 0.0000000000000000e+00 3.6702178854587826e-03 
2.9820719317652084e-02 0.0000000000000000e+00 3.2871617839716990e-03 
2.9820719318481341e-02 0.0000000000000000e+00 3.2871617838217924e-03 
3.4350091321698979e-02 0.0000000000000000e+00 2.6572736807266035e-03 
3.4350091322359950e-02 0.0000000000000000e+00 2.6572736804825877e-03 
3.8246384757534876e-02 0.0000000000000000e+00 1.8367717788953313e-03 
3.8246384757810795e-02 0.0000000000000000e+00 1.8367717786183101e-03 
4.1289257121010663e-02 0.0000000000000000e+00 9.5124226610165301e-04 
4.1289257121082577e-02 0.0000000000000000e+00 9.5124226585731483e-04 
4.3473299216855769e-02 0.0000000000000000e+00 1.0562547262580909e-04 
4.3473299216735192e-02 0.0000000000000000e+00 1.0562547249269412e-04 
4.4872594312950598e-02 0.0000000000000000e+00 -6.6979139826751021e-04 
4.4872594312751014e-02 0.0000000000000000e+00 -6.6979139825193348e-04 
4.5522144123894111e-02 0.0000000000000000e+00 -1.3752785056200460e-03 
4.5522144123735911e-02 0.0000000000000000e+00 -1.3752785054546744e-03 
4.5464291838586149e-02 0.0000000000000000e+00 -1.9834819703170533e-03 
4.5464291838601387e-02 0.0000000000000000e+00 -1.9834819700431405e-03 
4.4822934304246130e-02 0.0000000000000000e+00 -2.4481751157255914e-03 
4.4822934304742906e-02 0.0000000000000000e+00 -2.4481751155492888e-03 
4.3789960688870679e-02 0.0000000000000000e+00 -2.7524844022490010e-03 
4.3789960689558066e-02 0.0000000000000000e+00 -2.7524844023924661e-03 
4.2554725359637925e-02 0.0000000000000000e+00 -2.9294544626863538e-03 
4.2554725359817511e-02 0.0000000000000000e+00 -2.9294544631070785e-03 
4.1210840232206974e-02 0.0000000000000000e+00 -3.0201176561667031e-03 
4.1210840231735553e-02 0.0000000000000000e+00 -3.0201176566644881e-03 
3.9834965085976677e-02 0.0000000000000000e+00 -3.0540009423966892e-03 
3.9834965084982417e-02 0.0000000000000000e+00 -3.0540009428995734e-03 

