# vtk DataFile Version 2.0

ASCII

DATASET UNSTRUCTURED_GRID

POINTS 86 float 

5.0000000000000003e-02  0.0000000000000000e+00  0.0000000000000000e+00
5.0000000000000003e-02  0.0000000000000000e+00  5.0000000000000003e-02
5.0000000000000003e-02  2.9999999999999999e-01  0.0000000000000000e+00
5.0000000000000003e-02  2.9999999999999999e-01  5.0000000000000003e-02
5.0000000000000003e-02  0.0000000000000000e+00  1.0000000000000001e-01
5.0000000000000003e-02  2.9999999999999999e-01  1.0000000000000001e-01
5.0000000000000003e-02  0.0000000000000000e+00  1.4999999999999999e-01
5.0000000000000003e-02  2.9999999999999999e-01  1.4999999999999999e-01
5.0000000000000003e-02  0.0000000000000000e+00  2.0000000000000001e-01
5.0000000000000003e-02  2.9999999999999999e-01  2.0000000000000001e-01
5.0000000000000003e-02  0.0000000000000000e+00  2.5000000000000000e-01
5.0000000000000003e-02  2.9999999999999999e-01  2.5000000000000000e-01
5.0000000000000003e-02  0.0000000000000000e+00  2.9999999999999999e-01
5.0000000000000003e-02  2.9999999999999999e-01  2.9999999999999999e-01
5.0000000000000003e-02  0.0000000000000000e+00  3.4999999999999998e-01
5.0000000000000003e-02  2.9999999999999999e-01  3.4999999999999998e-01
5.0000000000000003e-02  0.0000000000000000e+00  4.0000000000000002e-01
5.0000000000000003e-02  2.9999999999999999e-01  4.0000000000000002e-01
5.0000000000000003e-02  0.0000000000000000e+00  4.5000000000000001e-01
5.0000000000000003e-02  2.9999999999999999e-01  4.5000000000000001e-01
5.0000000000000003e-02  0.0000000000000000e+00  5.0000000000000000e-01
5.0000000000000003e-02  2.9999999999999999e-01  5.0000000000000000e-01
5.0000000000000003e-02  0.0000000000000000e+00  5.5000000000000004e-01
5.0000000000000003e-02  2.9999999999999999e-01  5.5000000000000004e-01
5.0000000000000003e-02  0.0000000000000000e+00  5.9999999999999998e-01
5.0000000000000003e-02  2.9999999999999999e-01  5.9999999999999998e-01
5.0000000000000003e-02  0.0000000000000000e+00  6.5000000000000002e-01
5.0000000000000003e-02  2.9999999999999999e-01  6.5000000000000002e-01
5.0000000000000003e-02  0.0000000000000000e+00  6.9999999999999996e-01
5.0000000000000003e-02  2.9999999999999999e-01  6.9999999999999996e-01
5.0000000000000003e-02  0.0000000000000000e+00  7.5000000000000000e-01
5.0000000000000003e-02  2.9999999999999999e-01  7.5000000000000000e-01
5.0000000000000003e-02  0.0000000000000000e+00  8.0000000000000004e-01
5.0000000000000003e-02  2.9999999999999999e-01  8.0000000000000004e-01
5.0000000000000003e-02  0.0000000000000000e+00  8.4999999999999998e-01
5.0000000000000003e-02  2.9999999999999999e-01  8.4999999999999998e-01
5.0000000000000003e-02  0.0000000000000000e+00  9.0000000000000002e-01
5.0000000000000003e-02  2.9999999999999999e-01  9.0000000000000002e-01
5.0000000000000003e-02  0.0000000000000000e+00  9.4999999999999996e-01
5.0000000000000003e-02  2.9999999999999999e-01  9.4999999999999996e-01
0.0000000000000000e+00  0.0000000000000000e+00  1.0000000000000000e+00
5.0000000000000003e-02  0.0000000000000000e+00  1.0000000000000000e+00
0.0000000000000000e+00  2.9999999999999999e-01  1.0000000000000000e+00
5.0000000000000003e-02  2.9999999999999999e-01  1.0000000000000000e+00
-5.0000000000000003e-02  0.0000000000000000e+00  0.0000000000000000e+00
-5.0000000000000003e-02  0.0000000000000000e+00  5.0000000000000003e-02
-5.0000000000000003e-02  2.9999999999999999e-01  0.0000000000000000e+00
-5.0000000000000003e-02  2.9999999999999999e-01  5.0000000000000003e-02
-5.0000000000000003e-02  0.0000000000000000e+00  1.0000000000000001e-01
-5.0000000000000003e-02  2.9999999999999999e-01  1.0000000000000001e-01
-5.0000000000000003e-02  0.0000000000000000e+00  1.4999999999999999e-01
-5.0000000000000003e-02  2.9999999999999999e-01  1.4999999999999999e-01
-5.0000000000000003e-02  0.0000000000000000e+00  2.0000000000000001e-01
-5.0000000000000003e-02  2.9999999999999999e-01  2.0000000000000001e-01
-5.0000000000000003e-02  0.0000000000000000e+00  2.5000000000000000e-01
-5.0000000000000003e-02  2.9999999999999999e-01  2.5000000000000000e-01
-5.0000000000000003e-02  0.0000000000000000e+00  2.9999999999999999e-01
-5.0000000000000003e-02  2.9999999999999999e-01  2.9999999999999999e-01
-5.0000000000000003e-02  0.0000000000000000e+00  3.4999999999999998e-01
-5.0000000000000003e-02  2.9999999999999999e-01  3.4999999999999998e-01
-5.0000000000000003e-02  0.0000000000000000e+00  4.0000000000000002e-01
-5.0000000000000003e-02  2.9999999999999999e-01  4.0000000000000002e-01
-5.0000000000000003e-02  0.0000000000000000e+00  4.5000000000000001e-01
-5.0000000000000003e-02  2.9999999999999999e-01  4.5000000000000001e-01
-5.0000000000000003e-02  0.0000000000000000e+00  5.0000000000000000e-01
-5.0000000000000003e-02  2.9999999999999999e-01  5.0000000000000000e-01
-5.0000000000000003e-02  0.0000000000000000e+00  5.5000000000000004e-01
-5.0000000000000003e-02  2.9999999999999999e-01  5.5000000000000004e-01
-5.0000000000000003e-02  0.0000000000000000e+00  5.9999999999999998e-01
-5.0000000000000003e-02  2.9999999999999999e-01  5.9999999999999998e-01
-5.0000000000000003e-02  0.0000000000000000e+00  6.5000000000000002e-01
-5.0000000000000003e-02  2.9999999999999999e-01  6.5000000000000002e-01
-5.0000000000000003e-02  0.0000000000000000e+00  6.9999999999999996e-01
-5.0000000000000003e-02  2.9999999999999999e-01  6.9999999999999996e-01
-5.0000000000000003e-02  0.0000000000000000e+00  7.5000000000000000e-01
-5.0000000000000003e-02  2.9999999999999999e-01  7.5000000000000000e-01
-5.0000000000000003e-02  0.0000000000000000e+00  8.0000000000000004e-01
-5.0000000000000003e-02  2.9999999999999999e-01  8.0000000000000004e-01
-5.0000000000000003e-02  0.0000000000000000e+00  8.4999999999999998e-01
-5.0000000000000003e-02  2.9999999999999999e-01  8.4999999999999998e-01
-5.0000000000000003e-02  0.0000000000000000e+00  9.0000000000000002e-01
-5.0000000000000003e-02  2.9999999999999999e-01  9.0000000000000002e-01
-5.0000000000000003e-02  0.0000000000000000e+00  9.4999999999999996e-01
-5.0000000000000003e-02  2.9999999999999999e-01  9.4999999999999996e-01
-5.0000000000000003e-02  0.0000000000000000e+00  1.0000000000000000e+00
-5.0000000000000003e-02  2.9999999999999999e-01  1.0000000000000000e+00

CELLS 0 0


CELL_TYPES 0


POINT_DATA 86

VECTORS VertexNormals float

0.0000000000000000e+00 0.0000000000000000e+00 0.0000000000000000e+00 
0.0000000000000000e+00 0.0000000000000000e+00 0.0000000000000000e+00 
0.0000000000000000e+00 0.0000000000000000e+00 0.0000000000000000e+00 
0.0000000000000000e+00 0.0000000000000000e+00 0.0000000000000000e+00 
0.0000000000000000e+00 0.0000000000000000e+00 0.0000000000000000e+00 
0.0000000000000000e+00 0.0000000000000000e+00 0.0000000000000000e+00 
0.0000000000000000e+00 0.0000000000000000e+00 0.0000000000000000e+00 
0.0000000000000000e+00 0.0000000000000000e+00 0.0000000000000000e+00 
0.0000000000000000e+00 0.0000000000000000e+00 0.0000000000000000e+00 
0.0000000000000000e+00 0.0000000000000000e+00 0.0000000000000000e+00 
0.0000000000000000e+00 0.0000000000000000e+00 0.0000000000000000e+00 
0.0000000000000000e+00 0.0000000000000000e+00 0.0000000000000000e+00 
0.0000000000000000e+00 0.0000000000000000e+00 0.0000000000000000e+00 
0.0000000000000000e+00 0.0000000000000000e+00 0.0000000000000000e+00 
0.0000000000000000e+00 0.0000000000000000e+00 0.0000000000000000e+00 
0.0000000000000000e+00 0.0000000000000000e+00 0.0000000000000000e+00 
0.0000000000000000e+00 0.0000000000000000e+00 0.0000000000000000e+00 
0.0000000000000000e+00 0.0000000000000000e+00 0.0000000000000000e+00 
0.0000000000000000e+00 0.0000000000000000e+00 0.0000000000000000e+00 
0.0000000000000000e+00 0.0000000000000000e+00 0.0000000000000000e+00 
0.0000000000000000e+00 0.0000000000000000e+00 0.0000000000000000e+00 
0.0000000000000000e+00 0.0000000000000000e+00 0.0000000000000000e+00 
0.0000000000000000e+00 0.0000000000000000e+00 0.0000000000000000e+00 
0.0000000000000000e+00 0.0000000000000000e+00 0.0000000000000000e+00 
0.0000000000000000e+00 0.0000000000000000e+00 0.0000000000000000e+00 
0.0000000000000000e+00 0.0000000000000000e+00 0.0000000000000000e+00 
0.0000000000000000e+00 0.0000000000000000e+00 0.0000000000000000e+00 
0.0000000000000000e+00 0.0000000000000000e+00 0.0000000000000000e+00 
0.0000000000000000e+00 0.0000000000000000e+00 0.0000000000000000e+00 
0.0000000000000000e+00 0.0000000000000000e+00 0.0000000000000000e+00 
0.0000000000000000e+00 0.0000000000000000e+00 0.0000000000000000e+00 
0.0000000000000000e+00 0.0000000000000000e+00 0.0000000000000000e+00 
0.0000000000000000e+00 0.0000000000000000e+00 0.0000000000000000e+00 
0.0000000000000000e+00 0.0000000000000000e+00 0.0000000000000000e+00 
0.0000000000000000e+00 0.0000000000000000e+00 0.0000000000000000e+00 
0.0000000000000000e+00 0.0000000000000000e+00 0.0000000000000000e+00 
0.0000000000000000e+00 0.0000000000000000e+00 0.0000000000000000e+00 
0.0000000000000000e+00 0.0000000000000000e+00 0.0000000000000000e+00 
0.0000000000000000e+00 0.0000000000000000e+00 0.0000000000000000e+00 
0.0000000000000000e+00 0.0000000000000000e+00 0.0000000000000000e+00 
0.0000000000000000e+00 0.0000000000000000e+00 0.0000000000000000e+00 
0.0000000000000000e+00 0.0000000000000000e+00 0.0000000000000000e+00 
0.0000000000000000e+00 0.0000000000000000e+00 0.0000000000000000e+00 
0.0000000000000000e+00 0.0000000000000000e+00 0.0000000000000000e+00 
0.0000000000000000e+00 0.0000000000000000e+00 0.0000000000000000e+00 
0.0000000000000000e+00 0.0000000000000000e+00 0.0000000000000000e+00 
0.0000000000000000e+00 0.0000000000000000e+00 0.0000000000000000e+00 
0.0000000000000000e+00 0.0000000000000000e+00 0.0000000000000000e+00 
0.0000000000000000e+00 0.0000000000000000e+00 0.0000000000000000e+00 
0.0000000000000000e+00 0.0000000000000000e+00 0.0000000000000000e+00 
0.0000000000000000e+00 0.0000000000000000e+00 0.0000000000000000e+00 
0.0000000000000000e+00 0.0000000000000000e+00 0.0000000000000000e+00 
0.0000000000000000e+00 0.0000000000000000e+00 0.0000000000000000e+00 
0.0000000000000000e+00 0.0000000000000000e+00 0.0000000000000000e+00 
0.0000000000000000e+00 0.0000000000000000e+00 0.0000000000000000e+00 
0.0000000000000000e+00 0.0000000000000000e+00 0.0000000000000000e+00 
0.0000000000000000e+00 0.0000000000000000e+00 0.0000000000000000e+00 
0.0000000000000000e+00 0.0000000000000000e+00 0.0000000000000000e+00 
0.0000000000000000e+00 0.0000000000000000e+00 0.0000000000000000e+00 
0.0000000000000000e+00 0.0000000000000000e+00 0.0000000000000000e+00 
0.0000000000000000e+00 0.0000000000000000e+00 0.0000000000000000e+00 
0.0000000000000000e+00 0.0000000000000000e+00 0.0000000000000000e+00 
0.0000000000000000e+00 0.0000000000000000e+00 0.0000000000000000e+00 
0.0000000000000000e+00 0.0000000000000000e+00 0.0000000000000000e+00 
0.0000000000000000e+00 0.0000000000000000e+00 0.0000000000000000e+00 
0.0000000000000000e+00 0.0000000000000000e+00 0.0000000000000000e+00 
0.0000000000000000e+00 0.0000000000000000e+00 0.0000000000000000e+00 
0.0000000000000000e+00 0.0000000000000000e+00 0.0000000000000000e+00 
0.0000000000000000e+00 0.0000000000000000e+00 0.0000000000000000e+00 
0.0000000000000000e+00 0.0000000000000000e+00 0.0000000000000000e+00 
0.0000000000000000e+00 0.0000000000000000e+00 0.0000000000000000e+00 
0.0000000000000000e+00 0.0000000000000000e+00 0.0000000000000000e+00 
0.0000000000000000e+00 0.0000000000000000e+00 0.0000000000000000e+00 
0.0000000000000000e+00 0.0000000000000000e+00 0.0000000000000000e+00 
0.0000000000000000e+00 0.0000000000000000e+00 0.0000000000000000e+00 
0.0000000000000000e+00 0.0000000000000000e+00 0.0000000000000000e+00 
0.0000000000000000e+00 0.0000000000000000e+00 0.0000000000000000e+00 
0.0000000000000000e+00 0.0000000000000000e+00 0.0000000000000000e+00 
0.0000000000000000e+00 0.0000000000000000e+00 0.0000000000000000e+00 
0.0000000000000000e+00 0.0000000000000000e+00 0.0000000000000000e+00 
0.0000000000000000e+00 0.0000000000000000e+00 0.0000000000000000e+00 
0.0000000000000000e+00 0.0000000000000000e+00 0.0000000000000000e+00 
0.0000000000000000e+00 0.0000000000000000e+00 0.0000000000000000e+00 
0.0000000000000000e+00 0.0000000000000000e+00 0.0000000000000000e+00 
0.0000000000000000e+00 0.0000000000000000e+00 0.0000000000000000e+00 
0.0000000000000000e+00 0.0000000000000000e+00 0.0000000000000000e+00 

VECTORS Forces0 float
-3.0016510909879690e-01 0.0000000000000000e+00 1.3873370195614781e-02 
-6.4208930856137736e-01 0.0000000000000000e+00 4.3629187506672273e-02 
-3.0016510880947150e-01 0.0000000000000000e+00 1.3873370166516279e-02 
-6.4208930892490113e-01 0.0000000000000000e+00 4.3629187538300904e-02 
-7.3170339483670066e-01 0.0000000000000000e+00 1.0972698355294359e-01 
-7.3170339483610036e-01 0.0000000000000000e+00 1.0972698332991579e-01 
-6.1740336430309950e-01 0.0000000000000000e+00 1.4362667896144607e-01 
-6.1740336422959352e-01 0.0000000000000000e+00 1.4362667908944032e-01 
-5.9643722985345959e-01 0.0000000000000000e+00 1.6588396189396254e-01 
-5.9643722949626043e-01 0.0000000000000000e+00 1.6588396157296198e-01 
-6.1645625739076426e-01 0.0000000000000000e+00 1.9820660166193604e-01 
-6.1645625709588459e-01 0.0000000000000000e+00 1.9820660156522410e-01 
-7.3200764740278479e-01 0.0000000000000000e+00 2.7404820123342860e-01 
-7.3200764711097688e-01 0.0000000000000000e+00 2.7404820116931367e-01 
-6.1385279196625375e-01 0.0000000000000000e+00 2.5586503516333559e-01 
-6.1385279211278831e-01 0.0000000000000000e+00 2.5586503503473818e-01 
-5.9582630425729421e-01 0.0000000000000000e+00 2.6228790650494660e-01 
-5.9582630454831509e-01 0.0000000000000000e+00 2.6228790634422045e-01 
-6.1289586475591884e-01 0.0000000000000000e+00 2.8352253430981550e-01 
-6.1289586490170489e-01 0.0000000000000000e+00 2.8352253443763825e-01 
-7.2350999969055485e-01 0.0000000000000000e+00 3.5475770646073818e-01 
-7.2350999939640936e-01 0.0000000000000000e+00 3.5475770649276955e-01 
-6.0754524496851947e-01 0.0000000000000000e+00 3.1133185424174153e-01 
-6.0754524496790741e-01 0.0000000000000000e+00 3.1133185427274546e-01 
-5.8969201219418688e-01 0.0000000000000000e+00 3.0987390772360252e-01 
-5.8969201219408918e-01 0.0000000000000000e+00 3.0987390769137163e-01 
-6.0270559519145495e-01 0.0000000000000000e+00 3.2430044413424169e-01 
-6.0270559482702402e-01 0.0000000000000000e+00 3.2430044400621283e-01 
-7.0561583870762135e-01 0.0000000000000000e+00 3.9212142889687651e-01 
-7.0561583827317453e-01 0.0000000000000000e+00 3.9212142892932345e-01 
-5.9046054675233484e-01 0.0000000000000000e+00 3.3697413580507662e-01 
-5.9046054646711710e-01 0.0000000000000000e+00 3.3697413586897412e-01 
-5.7249499421383965e-01 0.0000000000000000e+00 3.3130880369687388e-01 
-5.7249499399703552e-01 0.0000000000000000e+00 3.3130880372876798e-01 
-5.8307156327462495e-01 0.0000000000000000e+00 3.4127584289517521e-01 
-5.8307156313018083e-01 0.0000000000000000e+00 3.4127584302330655e-01 
-6.6634299649443318e-01 0.0000000000000000e+00 3.9921360683501472e-01 
-6.6634299649297291e-01 0.0000000000000000e+00 3.9921360673855572e-01 
-6.2147875252043216e-01 0.0000000000000000e+00 3.5760032004834824e-01 
-6.2147875245040607e-01 0.0000000000000000e+00 3.5760031995181979e-01 
-2.5897542787033112e-01 0.0000000000000000e+00 -4.3554735829615288e-01 
-3.5442420544202002e-01 0.0000000000000000e+00 -4.7792808963491910e-02 
-2.5897542801834861e-01 0.0000000000000000e+00 -4.3554735823254581e-01 
-3.5442420522538487e-01 0.0000000000000000e+00 -4.7792808930898177e-02 
6.3456074857455547e-01 0.0000000000000000e+00 -4.0653210671743475e-02 
1.7587070831616101e+00 0.0000000000000000e+00 -1.0430330898973703e-01 
6.3456074850168342e-01 0.0000000000000000e+00 -4.0653210735652839e-02 
1.7587070830170359e+00 0.0000000000000000e+00 -1.0430330899024155e-01 
1.7907822635601747e+00 0.0000000000000000e+00 -2.6806019698288158e-01 
1.7907822637783235e+00 0.0000000000000000e+00 -2.6806019701354766e-01 
1.5271680044426335e+00 0.0000000000000000e+00 -3.4872662510329971e-01 
1.5271680045142486e+00 0.0000000000000000e+00 -3.4872662503842600e-01 
1.4759920159338169e+00 0.0000000000000000e+00 -4.0528141992936356e-01 
1.4759920157890289e+00 0.0000000000000000e+00 -4.0528141992892658e-01 
1.4507090515698751e+00 0.0000000000000000e+00 -4.6444666624416686e-01 
1.4507090517161711e+00 0.0000000000000000e+00 -4.6444666630824233e-01 
1.6193566851811281e+00 0.0000000000000000e+00 -6.0349339733576568e-01 
1.6193566852541545e+00 0.0000000000000000e+00 -6.0349339740029662e-01 
1.3368047621746351e+00 0.0000000000000000e+00 -5.5333925053245969e-01 
1.3368047618841601e+00 0.0000000000000000e+00 -5.5333925050029609e-01 
1.2893524596507360e+00 0.0000000000000000e+00 -5.6404852906029290e-01 
1.2893524594314860e+00 0.0000000000000000e+00 -5.6404852902826941e-01 
1.2634707576991506e+00 0.0000000000000000e+00 -5.8237337243271370e-01 
1.2634707577009152e+00 0.0000000000000000e+00 -5.8237337246522181e-01 
1.4125294702406421e+00 0.0000000000000000e+00 -6.8971294738100164e-01 
1.4125294704595679e+00 0.0000000000000000e+00 -6.8971294738080302e-01 
1.1677076764657315e+00 0.0000000000000000e+00 -5.9530393699111106e-01 
1.1677076763201943e+00 0.0000000000000000e+00 -5.9530393699132622e-01 
1.1256133662463761e+00 0.0000000000000000e+00 -5.8845785356429314e-01 
1.1256133663182983e+00 0.0000000000000000e+00 -5.8845785362851633e-01 
1.1038311404168737e+00 0.0000000000000000e+00 -5.9147225002594861e-01 
1.1038311403432406e+00 0.0000000000000000e+00 -5.9147225005811832e-01 
1.2303209926447438e+00 0.0000000000000000e+00 -6.8049418240932535e-01 
1.2303209927901346e+00 0.0000000000000000e+00 -6.8049418247368576e-01 
1.0065699525106226e+00 0.0000000000000000e+00 -5.7129887969398485e-01 
1.0065699527295524e+00 0.0000000000000000e+00 -5.7129887972647253e-01 
9.5963512335403001e-01 0.0000000000000000e+00 -5.5181313788863495e-01 
9.5963512328223710e-01 0.0000000000000000e+00 -5.5181313795274611e-01 
9.3251346880700547e-01 0.0000000000000000e+00 -5.4353373104450242e-01 
9.3251346873404262e-01 0.0000000000000000e+00 -5.4353373104452496e-01 
1.0066189122842655e+00 0.0000000000000000e+00 -5.9132976139726134e-01 
1.0066189122851148e+00 0.0000000000000000e+00 -5.9132976149333794e-01 
8.5059842219034931e-01 0.0000000000000000e+00 -5.1288067121504655e-01 
8.5059842226421167e-01 0.0000000000000000e+00 -5.1288067121504455e-01 
2.8868680765057458e-01 0.0000000000000000e+00 -2.6862778470236426e-01 
2.8868680772358440e-01 0.0000000000000000e+00 -2.6862778470236337e-01 

VECTORS Displacements0 float
6.9356603534975370e-310 0.0000000000000000e+00 0.0000000000000000e+00 
2.3492880733799802e-03 0.0000000000000000e+00 -3.8971298848019002e-03 
0.0000000000000000e+00 0.0000000000000000e+00 0.0000000000000000e+00 
2.3492880734761771e-03 0.0000000000000000e+00 -3.8971298849252859e-03 
7.5095386945131775e-03 0.0000000000000000e+00 -8.0832195843598218e-03 
7.5095386947406154e-03 0.0000000000000000e+00 -8.0832195845516024e-03 
1.6140091240393298e-02 0.0000000000000000e+00 -1.2382345298468902e-02 
1.6140091240717129e-02 0.0000000000000000e+00 -1.2382345298639266e-02 
2.7740386441067466e-02 0.0000000000000000e+00 -1.6891050176375155e-02 
2.7740386441458799e-02 0.0000000000000000e+00 -1.6891050176457000e-02 
4.1913495630087741e-02 0.0000000000000000e+00 -2.1610980240600691e-02 
4.1913495630352217e-02 0.0000000000000000e+00 -2.1610980240506113e-02 
5.8195896469812665e-02 0.0000000000000000e+00 -2.6542717847083248e-02 
5.8195896469855221e-02 0.0000000000000000e+00 -2.6542717846876961e-02 
7.6186331806571764e-02 0.0000000000000000e+00 -3.1694359709481798e-02 
7.6186331806380292e-02 0.0000000000000000e+00 -3.1694359709272625e-02 
9.5541716883750807e-02 0.0000000000000000e+00 -3.7065551212883838e-02 
9.5541716883449590e-02 0.0000000000000000e+00 -3.7065551212757279e-02 
1.1598905535099796e-01 0.0000000000000000e+00 -4.2654633257764224e-02 
1.1598905535078594e-01 0.0000000000000000e+00 -4.2654633257776339e-02 
1.3731966646727220e-01 0.0000000000000000e+00 -4.8467696937227675e-02 
1.3731966646722013e-01 0.0000000000000000e+00 -4.8467696937344366e-02 
1.5940702450700783e-01 0.0000000000000000e+00 -5.4523063667927689e-02 
1.5940702450711525e-01 0.0000000000000000e+00 -5.4523063668063379e-02 
1.8216758041795941e-01 0.0000000000000000e+00 -6.0821826920030658e-02 
1.8216758041811057e-01 0.0000000000000000e+00 -6.0821826920088501e-02 
2.0553560949967639e-01 0.0000000000000000e+00 -6.7343266560541071e-02 
2.0553560949976024e-01 0.0000000000000000e+00 -6.7343266560446702e-02 
2.2943284502560532e-01 0.0000000000000000e+00 -7.4052318497116396e-02 
2.2943284502551556e-01 0.0000000000000000e+00 -7.4052318496871397e-02 
2.5378858791563946e-01 0.0000000000000000e+00 -8.0921658060327528e-02 
2.5378858791532122e-01 0.0000000000000000e+00 -8.0921658060033833e-02 
2.7853549865280769e-01 0.0000000000000000e+00 -8.7920506867115458e-02 
2.7853549865238736e-01 0.0000000000000000e+00 -8.7920506866928705e-02 
3.0361705270470407e-01 0.0000000000000000e+00 -9.5010084123954563e-02 
3.0361705270442013e-01 0.0000000000000000e+00 -9.5010084124018609e-02 
3.2895699061521982e-01 0.0000000000000000e+00 -1.0213420730276812e-01 
3.2895699061523836e-01 0.0000000000000000e+00 -1.0213420730313912e-01 
3.5445739418789313e-01 0.0000000000000000e+00 -1.0923880500182802e-01 
3.5445739418834671e-01 0.0000000000000000e+00 -1.0923880500248943e-01 
3.8702636593426337e-01 0.0000000000000000e+00 -9.0750133698234439e-02 
3.8000683961657211e-01 0.0000000000000000e+00 -1.1629122656612267e-01 
3.8702636593542250e-01 0.0000000000000000e+00 -9.0750133698726351e-02 
3.8000683961748288e-01 0.0000000000000000e+00 -1.1629122656704140e-01 
0.0000000000000000e+00 0.0000000000000000e+00 0.0000000000000000e+00 
2.6260095800358777e-03 0.0000000000000000e+00 3.3451329664904764e-03 
0.0000000000000000e+00 0.0000000000000000e+00 0.0000000000000000e+00 
2.6260095801265738e-03 0.0000000000000000e+00 3.3451329665270852e-03 
8.6165759482749339e-03 0.0000000000000000e+00 6.4211835095623502e-03 
8.6165759485167612e-03 0.0000000000000000e+00 6.4211835095692778e-03 
1.8394885919826461e-02 0.0000000000000000e+00 8.6204580756102482e-03 
1.8394885920151014e-02 0.0000000000000000e+00 8.6204580755432757e-03 
3.1368873145755094e-02 0.0000000000000000e+00 9.7448838515338306e-03 
3.1368873146090888e-02 0.0000000000000000e+00 9.7448838513539675e-03 
4.6950267573964047e-02 0.0000000000000000e+00 9.6941311704510005e-03 
4.6950267574145686e-02 0.0000000000000000e+00 9.6941311702285256e-03 
6.4561116606029326e-02 0.0000000000000000e+00 8.5268589139069120e-03 
6.4561116605940966e-02 0.0000000000000000e+00 8.5268589137780793e-03 
8.3724791745140720e-02 0.0000000000000000e+00 6.3823952991442709e-03 
8.3724791744864288e-02 0.0000000000000000e+00 6.3823952991829969e-03 
1.0410244178023233e-01 0.0000000000000000e+00 3.4100507068740649e-03 
1.0410244177995158e-01 0.0000000000000000e+00 3.4100507070462336e-03 
1.2543180671892079e-01 0.0000000000000000e+00 -2.4087164379931782e-04 
1.2543180671880427e-01 0.0000000000000000e+00 -2.4087164359950079e-04 
1.4754086298020905e-01 0.0000000000000000e+00 -4.4423964632402521e-03 
1.4754086298026572e-01 0.0000000000000000e+00 -4.4423964631193644e-03 
1.7032089550912982e-01 0.0000000000000000e+00 -9.0990131649716331e-03 
1.7032089550927615e-01 0.0000000000000000e+00 -9.0990131649741936e-03 
1.9371960220318940e-01 0.0000000000000000e+00 -1.4167416340161115e-02 
1.9371960220331788e-01 0.0000000000000000e+00 -1.4167416340269127e-02 
2.1766425642734713e-01 0.0000000000000000e+00 -1.9615752123565817e-02 
2.1766425642731618e-01 0.0000000000000000e+00 -1.9615752123683657e-02 
2.4207413205878062e-01 0.0000000000000000e+00 -2.5408573157142362e-02 
2.4207413205856204e-01 0.0000000000000000e+00 -2.5408573157158939e-02 
2.6686468889201553e-01 0.0000000000000000e+00 -3.1499074047286690e-02 
2.6686468889165732e-01 0.0000000000000000e+00 -3.1499074047101339e-02 
2.9198157917851564e-01 0.0000000000000000e+00 -3.7857999394875608e-02 
2.9198157917822753e-01 0.0000000000000000e+00 -3.7857999394505092e-02 
3.1735281503641483e-01 0.0000000000000000e+00 -4.4456769071916938e-02 
3.1735281503644813e-01 0.0000000000000000e+00 -4.4456769071481723e-02 
3.4288913877560268e-01 0.0000000000000000e+00 -5.1259709399328494e-02 
3.4288913877609933e-01 0.0000000000000000e+00 -5.1259709398979635e-02 
3.6848229014202044e-01 0.0000000000000000e+00 -5.8203656663873900e-02 
3.6848229014299061e-01 0.0000000000000000e+00 -5.8203656663705729e-02 
3.9405548567722204e-01 0.0000000000000000e+00 -6.5208640811953808e-02 
3.9405548567864151e-01 0.0000000000000000e+00 -6.5208640812023197e-02 

