# vtk DataFile Version 2.0

ASCII

DATASET UNSTRUCTURED_GRID

POINTS 86 double 

5.0000000000000003e-02  0.0000000000000000e+00  0.0000000000000000e+00
5.0000000000000003e-02  0.0000000000000000e+00  5.0000000000000003e-02
5.0000000000000003e-02  2.9999999999999999e-01  0.0000000000000000e+00
5.0000000000000003e-02  2.9999999999999999e-01  5.0000000000000003e-02
5.0000000000000003e-02  0.0000000000000000e+00  1.0000000000000001e-01
5.0000000000000003e-02  2.9999999999999999e-01  1.0000000000000001e-01
5.0000000000000003e-02  0.0000000000000000e+00  1.4999999999999999e-01
5.0000000000000003e-02  2.9999999999999999e-01  1.4999999999999999e-01
5.0000000000000003e-02  0.0000000000000000e+00  2.0000000000000001e-01
5.0000000000000003e-02  2.9999999999999999e-01  2.0000000000000001e-01
5.0000000000000003e-02  0.0000000000000000e+00  2.5000000000000000e-01
5.0000000000000003e-02  2.9999999999999999e-01  2.5000000000000000e-01
5.0000000000000003e-02  0.0000000000000000e+00  2.9999999999999999e-01
5.0000000000000003e-02  2.9999999999999999e-01  2.9999999999999999e-01
5.0000000000000003e-02  0.0000000000000000e+00  3.4999999999999998e-01
5.0000000000000003e-02  2.9999999999999999e-01  3.4999999999999998e-01
5.0000000000000003e-02  0.0000000000000000e+00  4.0000000000000002e-01
5.0000000000000003e-02  2.9999999999999999e-01  4.0000000000000002e-01
5.0000000000000003e-02  0.0000000000000000e+00  4.5000000000000001e-01
5.0000000000000003e-02  2.9999999999999999e-01  4.5000000000000001e-01
5.0000000000000003e-02  0.0000000000000000e+00  5.0000000000000000e-01
5.0000000000000003e-02  2.9999999999999999e-01  5.0000000000000000e-01
5.0000000000000003e-02  0.0000000000000000e+00  5.5000000000000004e-01
5.0000000000000003e-02  2.9999999999999999e-01  5.5000000000000004e-01
5.0000000000000003e-02  0.0000000000000000e+00  5.9999999999999998e-01
5.0000000000000003e-02  2.9999999999999999e-01  5.9999999999999998e-01
5.0000000000000003e-02  0.0000000000000000e+00  6.5000000000000002e-01
5.0000000000000003e-02  2.9999999999999999e-01  6.5000000000000002e-01
5.0000000000000003e-02  0.0000000000000000e+00  6.9999999999999996e-01
5.0000000000000003e-02  2.9999999999999999e-01  6.9999999999999996e-01
5.0000000000000003e-02  0.0000000000000000e+00  7.5000000000000000e-01
5.0000000000000003e-02  2.9999999999999999e-01  7.5000000000000000e-01
5.0000000000000003e-02  0.0000000000000000e+00  8.0000000000000004e-01
5.0000000000000003e-02  2.9999999999999999e-01  8.0000000000000004e-01
5.0000000000000003e-02  0.0000000000000000e+00  8.4999999999999998e-01
5.0000000000000003e-02  2.9999999999999999e-01  8.4999999999999998e-01
5.0000000000000003e-02  0.0000000000000000e+00  9.0000000000000002e-01
5.0000000000000003e-02  2.9999999999999999e-01  9.0000000000000002e-01
5.0000000000000003e-02  0.0000000000000000e+00  9.4999999999999996e-01
5.0000000000000003e-02  2.9999999999999999e-01  9.4999999999999996e-01
0.0000000000000000e+00  0.0000000000000000e+00  1.0000000000000000e+00
5.0000000000000003e-02  0.0000000000000000e+00  1.0000000000000000e+00
0.0000000000000000e+00  2.9999999999999999e-01  1.0000000000000000e+00
5.0000000000000003e-02  2.9999999999999999e-01  1.0000000000000000e+00
-5.0000000000000003e-02  0.0000000000000000e+00  0.0000000000000000e+00
-5.0000000000000003e-02  0.0000000000000000e+00  5.0000000000000003e-02
-5.0000000000000003e-02  2.9999999999999999e-01  0.0000000000000000e+00
-5.0000000000000003e-02  2.9999999999999999e-01  5.0000000000000003e-02
-5.0000000000000003e-02  0.0000000000000000e+00  1.0000000000000001e-01
-5.0000000000000003e-02  2.9999999999999999e-01  1.0000000000000001e-01
-5.0000000000000003e-02  0.0000000000000000e+00  1.4999999999999999e-01
-5.0000000000000003e-02  2.9999999999999999e-01  1.4999999999999999e-01
-5.0000000000000003e-02  0.0000000000000000e+00  2.0000000000000001e-01
-5.0000000000000003e-02  2.9999999999999999e-01  2.0000000000000001e-01
-5.0000000000000003e-02  0.0000000000000000e+00  2.5000000000000000e-01
-5.0000000000000003e-02  2.9999999999999999e-01  2.5000000000000000e-01
-5.0000000000000003e-02  0.0000000000000000e+00  2.9999999999999999e-01
-5.0000000000000003e-02  2.9999999999999999e-01  2.9999999999999999e-01
-5.0000000000000003e-02  0.0000000000000000e+00  3.4999999999999998e-01
-5.0000000000000003e-02  2.9999999999999999e-01  3.4999999999999998e-01
-5.0000000000000003e-02  0.0000000000000000e+00  4.0000000000000002e-01
-5.0000000000000003e-02  2.9999999999999999e-01  4.0000000000000002e-01
-5.0000000000000003e-02  0.0000000000000000e+00  4.5000000000000001e-01
-5.0000000000000003e-02  2.9999999999999999e-01  4.5000000000000001e-01
-5.0000000000000003e-02  0.0000000000000000e+00  5.0000000000000000e-01
-5.0000000000000003e-02  2.9999999999999999e-01  5.0000000000000000e-01
-5.0000000000000003e-02  0.0000000000000000e+00  5.5000000000000004e-01
-5.0000000000000003e-02  2.9999999999999999e-01  5.5000000000000004e-01
-5.0000000000000003e-02  0.0000000000000000e+00  5.9999999999999998e-01
-5.0000000000000003e-02  2.9999999999999999e-01  5.9999999999999998e-01
-5.0000000000000003e-02  0.0000000000000000e+00  6.5000000000000002e-01
-5.0000000000000003e-02  2.9999999999999999e-01  6.5000000000000002e-01
-5.0000000000000003e-02  0.0000000000000000e+00  6.9999999999999996e-01
-5.0000000000000003e-02  2.9999999999999999e-01  6.9999999999999996e-01
-5.0000000000000003e-02  0.0000000000000000e+00  7.5000000000000000e-01
-5.0000000000000003e-02  2.9999999999999999e-01  7.5000000000000000e-01
-5.0000000000000003e-02  0.0000000000000000e+00  8.0000000000000004e-01
-5.0000000000000003e-02  2.9999999999999999e-01  8.0000000000000004e-01
-5.0000000000000003e-02  0.0000000000000000e+00  8.4999999999999998e-01
-5.0000000000000003e-02  2.9999999999999999e-01  8.4999999999999998e-01
-5.0000000000000003e-02  0.0000000000000000e+00  9.0000000000000002e-01
-5.0000000000000003e-02  2.9999999999999999e-01  9.0000000000000002e-01
-5.0000000000000003e-02  0.0000000000000000e+00  9.4999999999999996e-01
-5.0000000000000003e-02  2.9999999999999999e-01  9.4999999999999996e-01
-5.0000000000000003e-02  0.0000000000000000e+00  1.0000000000000000e+00
-5.0000000000000003e-02  2.9999999999999999e-01  1.0000000000000000e+00

CELLS 0 0


CELL_TYPES 0


POINT_DATA 86

VECTORS VertexNormals double

0.0000000000000000e+00 0.0000000000000000e+00 0.0000000000000000e+00 
0.0000000000000000e+00 0.0000000000000000e+00 0.0000000000000000e+00 
0.0000000000000000e+00 0.0000000000000000e+00 0.0000000000000000e+00 
0.0000000000000000e+00 0.0000000000000000e+00 0.0000000000000000e+00 
0.0000000000000000e+00 0.0000000000000000e+00 0.0000000000000000e+00 
0.0000000000000000e+00 0.0000000000000000e+00 0.0000000000000000e+00 
0.0000000000000000e+00 0.0000000000000000e+00 0.0000000000000000e+00 
0.0000000000000000e+00 0.0000000000000000e+00 0.0000000000000000e+00 
0.0000000000000000e+00 0.0000000000000000e+00 0.0000000000000000e+00 
0.0000000000000000e+00 0.0000000000000000e+00 0.0000000000000000e+00 
0.0000000000000000e+00 0.0000000000000000e+00 0.0000000000000000e+00 
0.0000000000000000e+00 0.0000000000000000e+00 0.0000000000000000e+00 
0.0000000000000000e+00 0.0000000000000000e+00 0.0000000000000000e+00 
0.0000000000000000e+00 0.0000000000000000e+00 0.0000000000000000e+00 
0.0000000000000000e+00 0.0000000000000000e+00 0.0000000000000000e+00 
0.0000000000000000e+00 0.0000000000000000e+00 0.0000000000000000e+00 
0.0000000000000000e+00 0.0000000000000000e+00 0.0000000000000000e+00 
0.0000000000000000e+00 0.0000000000000000e+00 0.0000000000000000e+00 
0.0000000000000000e+00 0.0000000000000000e+00 0.0000000000000000e+00 
0.0000000000000000e+00 0.0000000000000000e+00 0.0000000000000000e+00 
0.0000000000000000e+00 0.0000000000000000e+00 0.0000000000000000e+00 
0.0000000000000000e+00 0.0000000000000000e+00 0.0000000000000000e+00 
0.0000000000000000e+00 0.0000000000000000e+00 0.0000000000000000e+00 
0.0000000000000000e+00 0.0000000000000000e+00 0.0000000000000000e+00 
0.0000000000000000e+00 0.0000000000000000e+00 0.0000000000000000e+00 
0.0000000000000000e+00 0.0000000000000000e+00 0.0000000000000000e+00 
0.0000000000000000e+00 0.0000000000000000e+00 0.0000000000000000e+00 
0.0000000000000000e+00 0.0000000000000000e+00 0.0000000000000000e+00 
0.0000000000000000e+00 0.0000000000000000e+00 0.0000000000000000e+00 
0.0000000000000000e+00 0.0000000000000000e+00 0.0000000000000000e+00 
0.0000000000000000e+00 0.0000000000000000e+00 0.0000000000000000e+00 
0.0000000000000000e+00 0.0000000000000000e+00 0.0000000000000000e+00 
0.0000000000000000e+00 0.0000000000000000e+00 0.0000000000000000e+00 
0.0000000000000000e+00 0.0000000000000000e+00 0.0000000000000000e+00 
0.0000000000000000e+00 0.0000000000000000e+00 0.0000000000000000e+00 
0.0000000000000000e+00 0.0000000000000000e+00 0.0000000000000000e+00 
0.0000000000000000e+00 0.0000000000000000e+00 0.0000000000000000e+00 
0.0000000000000000e+00 0.0000000000000000e+00 0.0000000000000000e+00 
0.0000000000000000e+00 0.0000000000000000e+00 0.0000000000000000e+00 
0.0000000000000000e+00 0.0000000000000000e+00 0.0000000000000000e+00 
0.0000000000000000e+00 0.0000000000000000e+00 0.0000000000000000e+00 
0.0000000000000000e+00 0.0000000000000000e+00 0.0000000000000000e+00 
0.0000000000000000e+00 0.0000000000000000e+00 0.0000000000000000e+00 
0.0000000000000000e+00 0.0000000000000000e+00 0.0000000000000000e+00 
0.0000000000000000e+00 0.0000000000000000e+00 0.0000000000000000e+00 
0.0000000000000000e+00 0.0000000000000000e+00 0.0000000000000000e+00 
0.0000000000000000e+00 0.0000000000000000e+00 0.0000000000000000e+00 
0.0000000000000000e+00 0.0000000000000000e+00 0.0000000000000000e+00 
0.0000000000000000e+00 0.0000000000000000e+00 0.0000000000000000e+00 
0.0000000000000000e+00 0.0000000000000000e+00 0.0000000000000000e+00 
0.0000000000000000e+00 0.0000000000000000e+00 0.0000000000000000e+00 
0.0000000000000000e+00 0.0000000000000000e+00 0.0000000000000000e+00 
0.0000000000000000e+00 0.0000000000000000e+00 0.0000000000000000e+00 
0.0000000000000000e+00 0.0000000000000000e+00 0.0000000000000000e+00 
0.0000000000000000e+00 0.0000000000000000e+00 0.0000000000000000e+00 
0.0000000000000000e+00 0.0000000000000000e+00 0.0000000000000000e+00 
0.0000000000000000e+00 0.0000000000000000e+00 0.0000000000000000e+00 
0.0000000000000000e+00 0.0000000000000000e+00 0.0000000000000000e+00 
0.0000000000000000e+00 0.0000000000000000e+00 0.0000000000000000e+00 
0.0000000000000000e+00 0.0000000000000000e+00 0.0000000000000000e+00 
0.0000000000000000e+00 0.0000000000000000e+00 0.0000000000000000e+00 
0.0000000000000000e+00 0.0000000000000000e+00 0.0000000000000000e+00 
0.0000000000000000e+00 0.0000000000000000e+00 0.0000000000000000e+00 
0.0000000000000000e+00 0.0000000000000000e+00 0.0000000000000000e+00 
0.0000000000000000e+00 0.0000000000000000e+00 0.0000000000000000e+00 
0.0000000000000000e+00 0.0000000000000000e+00 0.0000000000000000e+00 
0.0000000000000000e+00 0.0000000000000000e+00 0.0000000000000000e+00 
0.0000000000000000e+00 0.0000000000000000e+00 0.0000000000000000e+00 
0.0000000000000000e+00 0.0000000000000000e+00 0.0000000000000000e+00 
0.0000000000000000e+00 0.0000000000000000e+00 0.0000000000000000e+00 
0.0000000000000000e+00 0.0000000000000000e+00 0.0000000000000000e+00 
0.0000000000000000e+00 0.0000000000000000e+00 0.0000000000000000e+00 
0.0000000000000000e+00 0.0000000000000000e+00 0.0000000000000000e+00 
0.0000000000000000e+00 0.0000000000000000e+00 0.0000000000000000e+00 
0.0000000000000000e+00 0.0000000000000000e+00 0.0000000000000000e+00 
0.0000000000000000e+00 0.0000000000000000e+00 0.0000000000000000e+00 
0.0000000000000000e+00 0.0000000000000000e+00 0.0000000000000000e+00 
0.0000000000000000e+00 0.0000000000000000e+00 0.0000000000000000e+00 
0.0000000000000000e+00 0.0000000000000000e+00 0.0000000000000000e+00 
0.0000000000000000e+00 0.0000000000000000e+00 0.0000000000000000e+00 
0.0000000000000000e+00 0.0000000000000000e+00 0.0000000000000000e+00 
0.0000000000000000e+00 0.0000000000000000e+00 0.0000000000000000e+00 
0.0000000000000000e+00 0.0000000000000000e+00 0.0000000000000000e+00 
0.0000000000000000e+00 0.0000000000000000e+00 0.0000000000000000e+00 
0.0000000000000000e+00 0.0000000000000000e+00 0.0000000000000000e+00 
0.0000000000000000e+00 0.0000000000000000e+00 0.0000000000000000e+00 

VECTORS Forces0 double
-1.3722373556241621e-01 0.0000000000000000e+00 4.5460459143861548e-03 
-2.4866202065493243e-01 0.0000000000000000e+00 9.4899333286408583e-03 
-1.3722373571352348e-01 0.0000000000000000e+00 4.5460459514037764e-03 
-2.4866202065399795e-01 0.0000000000000000e+00 9.4899332008748505e-03 
-3.1139883277910624e-01 0.0000000000000000e+00 2.4754872052332483e-02 
-3.1139883247476879e-01 0.0000000000000000e+00 2.4754872016152035e-02 
-2.5635047484560075e-01 0.0000000000000000e+00 3.1107165873805669e-02 
-2.5635047560656010e-01 0.0000000000000000e+00 3.1107165744962431e-02 
-2.4003157401261896e-01 0.0000000000000000e+00 3.5364698862268347e-02 
-2.4003157393622201e-01 0.0000000000000000e+00 3.5364698751896712e-02 
-2.5207954643681468e-01 0.0000000000000000e+00 4.3608866863363273e-02 
-2.5207954605396221e-01 0.0000000000000000e+00 4.3608866826987801e-02 
-3.0021974512051830e-01 0.0000000000000000e+00 6.3122915634546056e-02 
-3.0021974466369855e-01 0.0000000000000000e+00 6.3122915689628717e-02 
-2.3756744744031386e-01 0.0000000000000000e+00 5.7295203487520811e-02 
-2.3756744759389020e-01 0.0000000000000000e+00 5.7295203395673081e-02 
-2.1733932558974359e-01 0.0000000000000000e+00 5.6101775939375501e-02 
-2.1733932551531474e-01 0.0000000000000000e+00 5.6101775902726345e-02 
-2.2339278643958677e-01 0.0000000000000000e+00 6.1310430875414539e-02 
-2.2339278659183731e-01 0.0000000000000000e+00 6.1310430893957969e-02 
-2.5655611185707289e-01 0.0000000000000000e+00 7.6762654654693563e-02 
-2.5655611155104446e-01 0.0000000000000000e+00 7.6762654562569935e-02 
-1.9490578703853614e-01 0.0000000000000000e+00 6.3273829406484447e-02 
-1.9490578658232308e-01 0.0000000000000000e+00 6.3273829407120480e-02 
-1.7309687617648989e-01 0.0000000000000000e+00 5.8862970984546785e-02 
-1.7309687625248887e-01 0.0000000000000000e+00 5.8862970966105106e-02 
-1.7365337078034004e-01 0.0000000000000000e+00 6.1716490046953197e-02 
-1.7365337093332636e-01 0.0000000000000000e+00 6.1716490084446858e-02 
-1.9194724379802103e-01 0.0000000000000000e+00 7.2631581787282004e-02 
-1.9194724402623545e-01 0.0000000000000000e+00 7.2631581824566374e-02 
-1.3838035431092943e-01 0.0000000000000000e+00 5.5140765142650539e-02 
-1.3838035446402272e-01 0.0000000000000000e+00 5.5140765179173400e-02 
-1.1774329191237752e-01 0.0000000000000000e+00 4.8111387211467210e-02 
-1.1774329199428270e-01 0.0000000000000000e+00 4.8111387266620904e-02 
-1.1455529005360537e-01 0.0000000000000000e+00 4.7821698634214004e-02 
-1.1455528960060699e-01 0.0000000000000000e+00 4.7821698615809330e-02 
-1.1849602157152060e-01 0.0000000000000000e+00 5.1110895899476261e-02 
-1.1849602179948522e-01 0.0000000000000000e+00 5.1110895862719198e-02 
-8.4676751061494082e-02 0.0000000000000000e+00 3.5815292799328685e-02 
-8.4676750984366819e-02 0.0000000000000000e+00 3.5815292744356367e-02 
8.2031666231304881e-02 0.0000000000000000e+00 1.9423400305902389e-01 
-3.8389543546446595e-02 0.0000000000000000e+00 2.5788658527826979e-02 
8.2031666082788751e-02 0.0000000000000000e+00 1.9423400304072416e-01 
-3.8389543243837462e-02 0.0000000000000000e+00 2.5788658546045472e-02 
4.4552639567742069e-01 0.0000000000000000e+00 -1.4893926296038484e-02 
1.2503004546043641e+00 0.0000000000000000e+00 -4.4840717962877683e-02 
4.4552639582914344e-01 0.0000000000000000e+00 -1.4893926351648452e-02 
1.2503004546039636e+00 0.0000000000000000e+00 -4.4840717999385882e-02 
1.2741044275542410e+00 0.0000000000000000e+00 -1.0102615487537239e-01 
1.2741044271743451e+00 0.0000000000000000e+00 -1.0102615491170028e-01 
1.1114441709999037e+00 0.0000000000000000e+00 -1.3121834269226457e-01 
1.1114441708482121e+00 0.0000000000000000e+00 -1.3121834276624098e-01 
1.0939657495883877e+00 0.0000000000000000e+00 -1.5859649318291164e-01 
1.0939657498164459e+00 0.0000000000000000e+00 -1.5859649318340205e-01 
1.0907719152139264e+00 0.0000000000000000e+00 -1.8698936585868406e-01 
1.0907719149856254e+00 0.0000000000000000e+00 -1.8698936580358361e-01 
1.2384118320095576e+00 0.0000000000000000e+00 -2.5668656052096744e-01 
1.2384118317822372e+00 0.0000000000000000e+00 -2.5668656050246852e-01 
1.0373303859954157e+00 0.0000000000000000e+00 -2.4495315050570529e-01 
1.0373303859964331e+00 0.0000000000000000e+00 -2.4495315054246775e-01 
1.0081863755087281e+00 0.0000000000000000e+00 -2.5506391785652488e-01 
1.0081863756599618e+00 0.0000000000000000e+00 -2.5506391785664295e-01 
9.8874392616892559e-01 0.0000000000000000e+00 -2.6696022344585379e-01 
9.8874392639584974e-01 0.0000000000000000e+00 -2.6696022348274967e-01 
1.0992753106542081e+00 0.0000000000000000e+00 -3.2233293685052422e-01 
1.0992753105019821e+00 0.0000000000000000e+00 -3.2233293685049913e-01 
9.0246620554828061e-01 0.0000000000000000e+00 -2.8519432002446921e-01 
9.0246620585230652e-01 0.0000000000000000e+00 -2.8519431998760869e-01 
8.6316513814649320e-01 0.0000000000000000e+00 -2.8566381696259829e-01 
8.6316513807111928e-01 0.0000000000000000e+00 -2.8566381692600995e-01 
8.3193724566615446e-01 0.0000000000000000e+00 -2.8826555431273815e-01 
8.3193724566598826e-01 0.0000000000000000e+00 -2.8826555431273704e-01 
8.9897141104698397e-01 0.0000000000000000e+00 -3.3021594269303395e-01 
8.9897141119974822e-01 0.0000000000000000e+00 -3.3021594271139865e-01 
7.1445802801582614e-01 0.0000000000000000e+00 -2.7408620644845216e-01 
7.1445802809158754e-01 0.0000000000000000e+00 -2.7408620641180598e-01 
6.6541719106148023e-01 0.0000000000000000e+00 -2.6006372192138094e-01 
6.6541719106132813e-01 0.0000000000000000e+00 -2.6006372195816913e-01 
6.2206739126005062e-01 0.0000000000000000e+00 -2.4744365365132767e-01 
6.2206739126020605e-01 0.0000000000000000e+00 -2.4744365366968835e-01 
6.2606722959069472e-01 0.0000000000000000e+00 -2.5386072388894015e-01 
6.2606722951491001e-01 0.0000000000000000e+00 -2.5386072388882031e-01 
4.6614292262008206e-01 0.0000000000000000e+00 -1.8565924128318426e-01 
4.6614292261957102e-01 0.0000000000000000e+00 -1.8565924130152267e-01 
2.2524539234298641e-01 0.0000000000000000e+00 6.1849857763065855e-02 
2.2524539234297600e-01 0.0000000000000000e+00 6.1849857763084576e-02 

VECTORS Displacements0 double
6.9356603593235591e-310 0.0000000000000000e+00 0.0000000000000000e+00 
1.6090919630171239e-03 0.0000000000000000e+00 -2.2006728504699717e-03 
0.0000000000000000e+00 0.0000000000000000e+00 0.0000000000000000e+00 
1.6090919630058877e-03 0.0000000000000000e+00 -2.2006728505016620e-03 
4.6789309421066787e-03 0.0000000000000000e+00 -4.3314713664655575e-03 
4.6789309419903898e-03 0.0000000000000000e+00 -4.3314713665678047e-03 
9.4713461609824499e-03 0.0000000000000000e+00 -6.3587539910249322e-03 
9.4713461608641730e-03 0.0000000000000000e+00 -6.3587539912335232e-03 
1.5756585902124552e-02 0.0000000000000000e+00 -8.4369433694513468e-03 
1.5756585902113578e-02 0.0000000000000000e+00 -8.4369433697250393e-03 
2.3494338808308656e-02 0.0000000000000000e+00 -1.0642901530663242e-02 
2.3494338808523897e-02 0.0000000000000000e+00 -1.0642901530956223e-02 
3.2631821950177782e-02 0.0000000000000000e+00 -1.3009929811070542e-02 
3.2631821950485917e-02 0.0000000000000000e+00 -1.3009929811348107e-02 
4.3094556208695664e-02 0.0000000000000000e+00 -1.5543250406583428e-02 
4.3094556209064369e-02 0.0000000000000000e+00 -1.5543250406859846e-02 
5.4776595052271657e-02 0.0000000000000000e+00 -1.8237245563048773e-02 
5.4776595052750655e-02 0.0000000000000000e+00 -1.8237245563283752e-02 
6.7558827502595009e-02 0.0000000000000000e+00 -2.1086606546891928e-02 
6.7558827503077443e-02 0.0000000000000000e+00 -2.1086606547009865e-02 
8.1316437434720973e-02 0.0000000000000000e+00 -2.4096750194497543e-02 
8.1316437435105637e-02 0.0000000000000000e+00 -2.4096750194526791e-02 
9.5952618664526465e-02 0.0000000000000000e+00 -2.7294443777545484e-02 
9.5952618664679870e-02 0.0000000000000000e+00 -2.7294443777547243e-02 
1.1142550117464906e-01 0.0000000000000000e+00 -3.0714032023423224e-02 
1.1142550117473410e-01 0.0000000000000000e+00 -3.0714032023504038e-02 
1.2773633987320876e-01 0.0000000000000000e+00 -3.4365599629289881e-02 
1.2773633987335700e-01 0.0000000000000000e+00 -3.4365599629417813e-02 
1.4485817317214059e-01 0.0000000000000000e+00 -3.8212025697166058e-02 
1.4485817317237390e-01 0.0000000000000000e+00 -3.8212025697272056e-02 
1.6269888035631400e-01 0.0000000000000000e+00 -4.2186312589325849e-02 
1.6269888035658653e-01 0.0000000000000000e+00 -4.2186312589348872e-02 
1.8111858810422982e-01 0.0000000000000000e+00 -4.6219960012876427e-02 
1.8111858810444548e-01 0.0000000000000000e+00 -4.6219960012773183e-02 
1.9996573669020387e-01 0.0000000000000000e+00 -5.0255547265280906e-02 
1.9996573669036311e-01 0.0000000000000000e+00 -5.0255547265033410e-02 
2.1908325958694666e-01 0.0000000000000000e+00 -5.4246804683704984e-02 
2.1908325958690883e-01 0.0000000000000000e+00 -5.4246804683311528e-02 
2.3832379790261260e-01 0.0000000000000000e+00 -5.8171600854982436e-02 
2.3832379790236302e-01 0.0000000000000000e+00 -5.8171600854497539e-02 
2.6143179254765392e-01 0.0000000000000000e+00 -4.2798798448922024e-02 
2.5757894738331527e-01 0.0000000000000000e+00 -6.2042628217323190e-02 
2.6143179254714866e-01 0.0000000000000000e+00 -4.2798798448547892e-02 
2.5757894738290732e-01 0.0000000000000000e+00 -6.2042628216781755e-02 
0.0000000000000000e+00 0.0000000000000000e+00 0.0000000000000000e+00 
1.6522031261813749e-03 0.0000000000000000e+00 1.9002716886995213e-03 
0.0000000000000000e+00 0.0000000000000000e+00 0.0000000000000000e+00 
1.6522031260941923e-03 0.0000000000000000e+00 1.9002716886382905e-03 
4.9614370205220788e-03 0.0000000000000000e+00 3.5833326191273191e-03 
4.9614370203688689e-03 0.0000000000000000e+00 3.5833326190571257e-03 
1.0068385354165498e-02 0.0000000000000000e+00 4.9023513620476238e-03 
1.0068385354044088e-02 0.0000000000000000e+00 4.9023513620052471e-03 
1.6754626471670201e-02 0.0000000000000000e+00 5.9257360746074791e-03 
1.6754626471741599e-02 0.0000000000000000e+00 5.9257360745743615e-03 
2.4963781178109275e-02 0.0000000000000000e+00 6.6483854779600645e-03 
2.4963781178324120e-02 0.0000000000000000e+00 6.6483854778967904e-03 
3.4631076015740204e-02 0.0000000000000000e+00 7.0379660793643811e-03 
3.4631076016074409e-02 0.0000000000000000e+00 7.0379660792471528e-03 
4.5649409123488562e-02 0.0000000000000000e+00 7.0584625533800195e-03 
4.5649409123891781e-02 0.0000000000000000e+00 7.0584625532297812e-03 
5.7902514962363358e-02 0.0000000000000000e+00 6.6856991168038494e-03 
5.7902514962859031e-02 0.0000000000000000e+00 6.6856991165868121e-03 
7.1250317952046838e-02 0.0000000000000000e+00 5.9209848793952830e-03 
7.1250317952504541e-02 0.0000000000000000e+00 5.9209848791074793e-03 
8.5564147765806925e-02 0.0000000000000000e+00 4.7910964589965880e-03 
8.5564147766103785e-02 0.0000000000000000e+00 4.7910964587089310e-03 
1.0074804154372113e-01 0.0000000000000000e+00 3.3398781162364229e-03 
1.0074804154384835e-01 0.0000000000000000e+00 3.3398781160542020e-03 
1.1678212237840008e-01 0.0000000000000000e+00 1.5869118484147190e-03 
1.1678212237849722e-01 0.0000000000000000e+00 1.5869118483384874e-03 
1.3365486543919372e-01 0.0000000000000000e+00 -4.8643542257632806e-04 
1.3365486543938190e-01 0.0000000000000000e+00 -4.8643542263123081e-04 
1.5130709442704399e-01 0.0000000000000000e+00 -2.9177344346500915e-03 
1.5130709442732782e-01 0.0000000000000000e+00 -2.9177344347540257e-03 
1.6960053446250070e-01 0.0000000000000000e+00 -5.7165217288706553e-03 
1.6960053446274312e-01 0.0000000000000000e+00 -5.7165217289969691e-03 
1.8837643070126950e-01 0.0000000000000000e+00 -8.8582853860874715e-03 
1.8837643070145216e-01 0.0000000000000000e+00 -8.8582853862313616e-03 
2.0746943339155938e-01 0.0000000000000000e+00 -1.2289868008343582e-02 
2.0746943339158816e-01 0.0000000000000000e+00 -1.2289868008462395e-02 
2.2672807029555742e-01 0.0000000000000000e+00 -1.5941204850370885e-02 
2.2672807029536107e-01 0.0000000000000000e+00 -1.5941204850400723e-02 
2.4602319560574826e-01 0.0000000000000000e+00 -1.9725618504021190e-02 
2.4602319560534394e-01 0.0000000000000000e+00 -1.9725618503932240e-02 
2.6528788408709653e-01 0.0000000000000000e+00 -2.3561481111260437e-02 
2.6528788408651199e-01 0.0000000000000000e+00 -2.3561481111067862e-02 

