# vtk DataFile Version 2.0

ASCII

DATASET UNSTRUCTURED_GRID

POINTS 86 float 

5.0000000000000003e-02  0.0000000000000000e+00  0.0000000000000000e+00
5.0000000000000003e-02  0.0000000000000000e+00  5.0000000000000003e-02
5.0000000000000003e-02  2.9999999999999999e-01  0.0000000000000000e+00
5.0000000000000003e-02  2.9999999999999999e-01  5.0000000000000003e-02
5.0000000000000003e-02  0.0000000000000000e+00  1.0000000000000001e-01
5.0000000000000003e-02  2.9999999999999999e-01  1.0000000000000001e-01
5.0000000000000003e-02  0.0000000000000000e+00  1.4999999999999999e-01
5.0000000000000003e-02  2.9999999999999999e-01  1.4999999999999999e-01
5.0000000000000003e-02  0.0000000000000000e+00  2.0000000000000001e-01
5.0000000000000003e-02  2.9999999999999999e-01  2.0000000000000001e-01
5.0000000000000003e-02  0.0000000000000000e+00  2.5000000000000000e-01
5.0000000000000003e-02  2.9999999999999999e-01  2.5000000000000000e-01
5.0000000000000003e-02  0.0000000000000000e+00  2.9999999999999999e-01
5.0000000000000003e-02  2.9999999999999999e-01  2.9999999999999999e-01
5.0000000000000003e-02  0.0000000000000000e+00  3.4999999999999998e-01
5.0000000000000003e-02  2.9999999999999999e-01  3.4999999999999998e-01
5.0000000000000003e-02  0.0000000000000000e+00  4.0000000000000002e-01
5.0000000000000003e-02  2.9999999999999999e-01  4.0000000000000002e-01
5.0000000000000003e-02  0.0000000000000000e+00  4.5000000000000001e-01
5.0000000000000003e-02  2.9999999999999999e-01  4.5000000000000001e-01
5.0000000000000003e-02  0.0000000000000000e+00  5.0000000000000000e-01
5.0000000000000003e-02  2.9999999999999999e-01  5.0000000000000000e-01
5.0000000000000003e-02  0.0000000000000000e+00  5.5000000000000004e-01
5.0000000000000003e-02  2.9999999999999999e-01  5.5000000000000004e-01
5.0000000000000003e-02  0.0000000000000000e+00  5.9999999999999998e-01
5.0000000000000003e-02  2.9999999999999999e-01  5.9999999999999998e-01
5.0000000000000003e-02  0.0000000000000000e+00  6.5000000000000002e-01
5.0000000000000003e-02  2.9999999999999999e-01  6.5000000000000002e-01
5.0000000000000003e-02  0.0000000000000000e+00  6.9999999999999996e-01
5.0000000000000003e-02  2.9999999999999999e-01  6.9999999999999996e-01
5.0000000000000003e-02  0.0000000000000000e+00  7.5000000000000000e-01
5.0000000000000003e-02  2.9999999999999999e-01  7.5000000000000000e-01
5.0000000000000003e-02  0.0000000000000000e+00  8.0000000000000004e-01
5.0000000000000003e-02  2.9999999999999999e-01  8.0000000000000004e-01
5.0000000000000003e-02  0.0000000000000000e+00  8.4999999999999998e-01
5.0000000000000003e-02  2.9999999999999999e-01  8.4999999999999998e-01
5.0000000000000003e-02  0.0000000000000000e+00  9.0000000000000002e-01
5.0000000000000003e-02  2.9999999999999999e-01  9.0000000000000002e-01
5.0000000000000003e-02  0.0000000000000000e+00  9.4999999999999996e-01
5.0000000000000003e-02  2.9999999999999999e-01  9.4999999999999996e-01
0.0000000000000000e+00  0.0000000000000000e+00  1.0000000000000000e+00
5.0000000000000003e-02  0.0000000000000000e+00  1.0000000000000000e+00
0.0000000000000000e+00  2.9999999999999999e-01  1.0000000000000000e+00
5.0000000000000003e-02  2.9999999999999999e-01  1.0000000000000000e+00
-5.0000000000000003e-02  0.0000000000000000e+00  0.0000000000000000e+00
-5.0000000000000003e-02  0.0000000000000000e+00  5.0000000000000003e-02
-5.0000000000000003e-02  2.9999999999999999e-01  0.0000000000000000e+00
-5.0000000000000003e-02  2.9999999999999999e-01  5.0000000000000003e-02
-5.0000000000000003e-02  0.0000000000000000e+00  1.0000000000000001e-01
-5.0000000000000003e-02  2.9999999999999999e-01  1.0000000000000001e-01
-5.0000000000000003e-02  0.0000000000000000e+00  1.4999999999999999e-01
-5.0000000000000003e-02  2.9999999999999999e-01  1.4999999999999999e-01
-5.0000000000000003e-02  0.0000000000000000e+00  2.0000000000000001e-01
-5.0000000000000003e-02  2.9999999999999999e-01  2.0000000000000001e-01
-5.0000000000000003e-02  0.0000000000000000e+00  2.5000000000000000e-01
-5.0000000000000003e-02  2.9999999999999999e-01  2.5000000000000000e-01
-5.0000000000000003e-02  0.0000000000000000e+00  2.9999999999999999e-01
-5.0000000000000003e-02  2.9999999999999999e-01  2.9999999999999999e-01
-5.0000000000000003e-02  0.0000000000000000e+00  3.4999999999999998e-01
-5.0000000000000003e-02  2.9999999999999999e-01  3.4999999999999998e-01
-5.0000000000000003e-02  0.0000000000000000e+00  4.0000000000000002e-01
-5.0000000000000003e-02  2.9999999999999999e-01  4.0000000000000002e-01
-5.0000000000000003e-02  0.0000000000000000e+00  4.5000000000000001e-01
-5.0000000000000003e-02  2.9999999999999999e-01  4.5000000000000001e-01
-5.0000000000000003e-02  0.0000000000000000e+00  5.0000000000000000e-01
-5.0000000000000003e-02  2.9999999999999999e-01  5.0000000000000000e-01
-5.0000000000000003e-02  0.0000000000000000e+00  5.5000000000000004e-01
-5.0000000000000003e-02  2.9999999999999999e-01  5.5000000000000004e-01
-5.0000000000000003e-02  0.0000000000000000e+00  5.9999999999999998e-01
-5.0000000000000003e-02  2.9999999999999999e-01  5.9999999999999998e-01
-5.0000000000000003e-02  0.0000000000000000e+00  6.5000000000000002e-01
-5.0000000000000003e-02  2.9999999999999999e-01  6.5000000000000002e-01
-5.0000000000000003e-02  0.0000000000000000e+00  6.9999999999999996e-01
-5.0000000000000003e-02  2.9999999999999999e-01  6.9999999999999996e-01
-5.0000000000000003e-02  0.0000000000000000e+00  7.5000000000000000e-01
-5.0000000000000003e-02  2.9999999999999999e-01  7.5000000000000000e-01
-5.0000000000000003e-02  0.0000000000000000e+00  8.0000000000000004e-01
-5.0000000000000003e-02  2.9999999999999999e-01  8.0000000000000004e-01
-5.0000000000000003e-02  0.0000000000000000e+00  8.4999999999999998e-01
-5.0000000000000003e-02  2.9999999999999999e-01  8.4999999999999998e-01
-5.0000000000000003e-02  0.0000000000000000e+00  9.0000000000000002e-01
-5.0000000000000003e-02  2.9999999999999999e-01  9.0000000000000002e-01
-5.0000000000000003e-02  0.0000000000000000e+00  9.4999999999999996e-01
-5.0000000000000003e-02  2.9999999999999999e-01  9.4999999999999996e-01
-5.0000000000000003e-02  0.0000000000000000e+00  1.0000000000000000e+00
-5.0000000000000003e-02  2.9999999999999999e-01  1.0000000000000000e+00

CELLS 0 0


CELL_TYPES 0


POINT_DATA 86

VECTORS VertexNormals float

0.0000000000000000e+00 0.0000000000000000e+00 0.0000000000000000e+00 
0.0000000000000000e+00 0.0000000000000000e+00 0.0000000000000000e+00 
0.0000000000000000e+00 0.0000000000000000e+00 0.0000000000000000e+00 
0.0000000000000000e+00 0.0000000000000000e+00 0.0000000000000000e+00 
0.0000000000000000e+00 0.0000000000000000e+00 0.0000000000000000e+00 
0.0000000000000000e+00 0.0000000000000000e+00 0.0000000000000000e+00 
0.0000000000000000e+00 0.0000000000000000e+00 0.0000000000000000e+00 
0.0000000000000000e+00 0.0000000000000000e+00 0.0000000000000000e+00 
0.0000000000000000e+00 0.0000000000000000e+00 0.0000000000000000e+00 
0.0000000000000000e+00 0.0000000000000000e+00 0.0000000000000000e+00 
0.0000000000000000e+00 0.0000000000000000e+00 0.0000000000000000e+00 
0.0000000000000000e+00 0.0000000000000000e+00 0.0000000000000000e+00 
0.0000000000000000e+00 0.0000000000000000e+00 0.0000000000000000e+00 
0.0000000000000000e+00 0.0000000000000000e+00 0.0000000000000000e+00 
0.0000000000000000e+00 0.0000000000000000e+00 0.0000000000000000e+00 
0.0000000000000000e+00 0.0000000000000000e+00 0.0000000000000000e+00 
0.0000000000000000e+00 0.0000000000000000e+00 0.0000000000000000e+00 
0.0000000000000000e+00 0.0000000000000000e+00 0.0000000000000000e+00 
0.0000000000000000e+00 0.0000000000000000e+00 0.0000000000000000e+00 
0.0000000000000000e+00 0.0000000000000000e+00 0.0000000000000000e+00 
0.0000000000000000e+00 0.0000000000000000e+00 0.0000000000000000e+00 
0.0000000000000000e+00 0.0000000000000000e+00 0.0000000000000000e+00 
0.0000000000000000e+00 0.0000000000000000e+00 0.0000000000000000e+00 
0.0000000000000000e+00 0.0000000000000000e+00 0.0000000000000000e+00 
0.0000000000000000e+00 0.0000000000000000e+00 0.0000000000000000e+00 
0.0000000000000000e+00 0.0000000000000000e+00 0.0000000000000000e+00 
0.0000000000000000e+00 0.0000000000000000e+00 0.0000000000000000e+00 
0.0000000000000000e+00 0.0000000000000000e+00 0.0000000000000000e+00 
0.0000000000000000e+00 0.0000000000000000e+00 0.0000000000000000e+00 
0.0000000000000000e+00 0.0000000000000000e+00 0.0000000000000000e+00 
0.0000000000000000e+00 0.0000000000000000e+00 0.0000000000000000e+00 
0.0000000000000000e+00 0.0000000000000000e+00 0.0000000000000000e+00 
0.0000000000000000e+00 0.0000000000000000e+00 0.0000000000000000e+00 
0.0000000000000000e+00 0.0000000000000000e+00 0.0000000000000000e+00 
0.0000000000000000e+00 0.0000000000000000e+00 0.0000000000000000e+00 
0.0000000000000000e+00 0.0000000000000000e+00 0.0000000000000000e+00 
0.0000000000000000e+00 0.0000000000000000e+00 0.0000000000000000e+00 
0.0000000000000000e+00 0.0000000000000000e+00 0.0000000000000000e+00 
0.0000000000000000e+00 0.0000000000000000e+00 0.0000000000000000e+00 
0.0000000000000000e+00 0.0000000000000000e+00 0.0000000000000000e+00 
0.0000000000000000e+00 0.0000000000000000e+00 0.0000000000000000e+00 
0.0000000000000000e+00 0.0000000000000000e+00 0.0000000000000000e+00 
0.0000000000000000e+00 0.0000000000000000e+00 0.0000000000000000e+00 
0.0000000000000000e+00 0.0000000000000000e+00 0.0000000000000000e+00 
0.0000000000000000e+00 0.0000000000000000e+00 0.0000000000000000e+00 
0.0000000000000000e+00 0.0000000000000000e+00 0.0000000000000000e+00 
0.0000000000000000e+00 0.0000000000000000e+00 0.0000000000000000e+00 
0.0000000000000000e+00 0.0000000000000000e+00 0.0000000000000000e+00 
0.0000000000000000e+00 0.0000000000000000e+00 0.0000000000000000e+00 
0.0000000000000000e+00 0.0000000000000000e+00 0.0000000000000000e+00 
0.0000000000000000e+00 0.0000000000000000e+00 0.0000000000000000e+00 
0.0000000000000000e+00 0.0000000000000000e+00 0.0000000000000000e+00 
0.0000000000000000e+00 0.0000000000000000e+00 0.0000000000000000e+00 
0.0000000000000000e+00 0.0000000000000000e+00 0.0000000000000000e+00 
0.0000000000000000e+00 0.0000000000000000e+00 0.0000000000000000e+00 
0.0000000000000000e+00 0.0000000000000000e+00 0.0000000000000000e+00 
0.0000000000000000e+00 0.0000000000000000e+00 0.0000000000000000e+00 
0.0000000000000000e+00 0.0000000000000000e+00 0.0000000000000000e+00 
0.0000000000000000e+00 0.0000000000000000e+00 0.0000000000000000e+00 
0.0000000000000000e+00 0.0000000000000000e+00 0.0000000000000000e+00 
0.0000000000000000e+00 0.0000000000000000e+00 0.0000000000000000e+00 
0.0000000000000000e+00 0.0000000000000000e+00 0.0000000000000000e+00 
0.0000000000000000e+00 0.0000000000000000e+00 0.0000000000000000e+00 
0.0000000000000000e+00 0.0000000000000000e+00 0.0000000000000000e+00 
0.0000000000000000e+00 0.0000000000000000e+00 0.0000000000000000e+00 
0.0000000000000000e+00 0.0000000000000000e+00 0.0000000000000000e+00 
0.0000000000000000e+00 0.0000000000000000e+00 0.0000000000000000e+00 
0.0000000000000000e+00 0.0000000000000000e+00 0.0000000000000000e+00 
0.0000000000000000e+00 0.0000000000000000e+00 0.0000000000000000e+00 
0.0000000000000000e+00 0.0000000000000000e+00 0.0000000000000000e+00 
0.0000000000000000e+00 0.0000000000000000e+00 0.0000000000000000e+00 
0.0000000000000000e+00 0.0000000000000000e+00 0.0000000000000000e+00 
0.0000000000000000e+00 0.0000000000000000e+00 0.0000000000000000e+00 
0.0000000000000000e+00 0.0000000000000000e+00 0.0000000000000000e+00 
0.0000000000000000e+00 0.0000000000000000e+00 0.0000000000000000e+00 
0.0000000000000000e+00 0.0000000000000000e+00 0.0000000000000000e+00 
0.0000000000000000e+00 0.0000000000000000e+00 0.0000000000000000e+00 
0.0000000000000000e+00 0.0000000000000000e+00 0.0000000000000000e+00 
0.0000000000000000e+00 0.0000000000000000e+00 0.0000000000000000e+00 
0.0000000000000000e+00 0.0000000000000000e+00 0.0000000000000000e+00 
0.0000000000000000e+00 0.0000000000000000e+00 0.0000000000000000e+00 
0.0000000000000000e+00 0.0000000000000000e+00 0.0000000000000000e+00 
0.0000000000000000e+00 0.0000000000000000e+00 0.0000000000000000e+00 
0.0000000000000000e+00 0.0000000000000000e+00 0.0000000000000000e+00 
0.0000000000000000e+00 0.0000000000000000e+00 0.0000000000000000e+00 
0.0000000000000000e+00 0.0000000000000000e+00 0.0000000000000000e+00 

VECTORS Forces0 float
1.8925626491572356e-01 0.0000000000000000e+00 1.1834632336762342e-03 
6.4343084652810845e-01 0.0000000000000000e+00 -2.7164351234236668e-02 
1.8925626549426722e-01 0.0000000000000000e+00 1.1834632210903856e-03 
6.4343084710684662e-01 0.0000000000000000e+00 -2.7164351231100229e-02 
6.1629581067319184e-01 0.0000000000000000e+00 -3.6281262920430178e-02 
6.1629581081757168e-01 0.0000000000000000e+00 -3.6281262916355757e-02 
5.5780768827167049e-01 0.0000000000000000e+00 -4.3047917667495633e-02 
5.5780768754890964e-01 0.0000000000000000e+00 -4.3047917673250405e-02 
5.6823024443308645e-01 0.0000000000000000e+00 -4.9037883056540263e-02 
5.6823024399860422e-01 0.0000000000000000e+00 -4.9037883075937157e-02 
5.6426232502547524e-01 0.0000000000000000e+00 -5.3346731947487555e-02 
5.6426232517017005e-01 0.0000000000000000e+00 -5.3346731940824559e-02 
6.5288045411749562e-01 0.0000000000000000e+00 -6.7254634508022049e-02 
6.5288045296059427e-01 0.0000000000000000e+00 -6.7254634523348122e-02 
5.9256945720447907e-01 0.0000000000000000e+00 -6.1433909148819556e-02 
5.9256945763850033e-01 0.0000000000000000e+00 -6.1433909132601647e-02 
6.1719412877493107e-01 0.0000000000000000e+00 -5.9466631567257046e-02 
6.1719412819625541e-01 0.0000000000000000e+00 -5.9466631582081361e-02 
6.2638360759327083e-01 0.0000000000000000e+00 -5.5276936820853786e-02 
6.2638360744833588e-01 0.0000000000000000e+00 -5.5276936810972357e-02 
7.4540244918469123e-01 0.0000000000000000e+00 -5.1912122836490597e-02 
7.4540244932954836e-01 0.0000000000000000e+00 -5.1912122839312173e-02 
6.7848332558996405e-01 0.0000000000000000e+00 -3.3911791662217201e-02 
6.7848332645756748e-01 0.0000000000000000e+00 -3.3911791660526193e-02 
6.9827625322255249e-01 0.0000000000000000e+00 -2.5505964145137578e-02 
6.9827625307834562e-01 0.0000000000000000e+00 -2.5505964145755042e-02 
7.0315493336774093e-01 0.0000000000000000e+00 -1.6547990989604265e-02 
7.0315493336776147e-01 0.0000000000000000e+00 -1.6547990967034482e-02 
8.1556726411638059e-01 0.0000000000000000e+00 -4.6319522955605083e-03 
8.1556726324771556e-01 0.0000000000000000e+00 -4.6319522814666459e-03 
7.1246716118494680e-01 0.0000000000000000e+00 5.5410464094863016e-03 
7.1246716190829407e-01 0.0000000000000000e+00 5.5410463950108721e-03 
7.1037213185766168e-01 0.0000000000000000e+00 9.8225687239369142e-03 
7.1037213171281599e-01 0.0000000000000000e+00 9.8225687257524931e-03 
6.9870814811066051e-01 0.0000000000000000e+00 1.4239962742302728e-02 
6.9870814825522498e-01 0.0000000000000000e+00 1.4239962729547704e-02 
7.7226158522143962e-01 0.0000000000000000e+00 1.5675034727488851e-02 
7.7226158507561871e-01 0.0000000000000000e+00 1.5675034742767165e-02 
7.3227906422599220e-01 0.0000000000000000e+00 3.1043134909761530e-02 
7.3227906364798867e-01 0.0000000000000000e+00 3.1043134925177955e-02 
-1.4292029926769577e-02 0.0000000000000000e+00 1.1769753324344314e+00 
2.5031604107707373e-01 0.0000000000000000e+00 2.9915401492006238e-01 
-1.4292029058380737e-02 0.0000000000000000e+00 1.1769753324343091e+00 
2.5031604136827329e-01 0.0000000000000000e+00 2.9915401492443461e-01 
3.0175976466355459e-01 0.0000000000000000e+00 -1.1323643241557828e-03 
9.3505655969629031e-01 0.0000000000000000e+00 -3.6299760118980506e-02 
3.0175976451832565e-01 0.0000000000000000e+00 -1.1323643415242742e-03 
9.3505655955073275e-01 0.0000000000000000e+00 -3.6299760117206238e-02 
9.1477406511725379e-01 0.0000000000000000e+00 -5.3898017716296293e-02 
9.1477406540598527e-01 0.0000000000000000e+00 -5.3898017720348121e-02 
8.0613733260426834e-01 0.0000000000000000e+00 -6.2301855187570386e-02 
8.0613733289371836e-01 0.0000000000000000e+00 -6.2301855197794728e-02 
8.0235423045545784e-01 0.0000000000000000e+00 -6.9404795563383664e-02 
8.0235423088911617e-01 0.0000000000000000e+00 -6.9404795558014820e-02 
7.9115455361673670e-01 0.0000000000000000e+00 -7.5136961152889772e-02 
7.9115455376133292e-01 0.0000000000000000e+00 -7.5136961139528127e-02 
8.9157561017707843e-01 0.0000000000000000e+00 -9.2423281437839372e-02 
8.9157560988760609e-01 0.0000000000000000e+00 -9.2423281432867016e-02 
7.6261285852667193e-01 0.0000000000000000e+00 -7.9604027568422303e-02 
7.6261285881634322e-01 0.0000000000000000e+00 -7.9604027567936511e-02 
7.5776166833818237e-01 0.0000000000000000e+00 -7.3927276630547142e-02 
7.5776166848304161e-01 0.0000000000000000e+00 -7.3927276612524365e-02 
7.4111063376925401e-01 0.0000000000000000e+00 -6.6344103764570006e-02 
7.4111063376903785e-01 0.0000000000000000e+00 -6.6344103754787775e-02 
8.2956027811203936e-01 0.0000000000000000e+00 -5.8500786261605327e-02 
8.2956027811230382e-01 0.0000000000000000e+00 -5.8500786265484661e-02 
7.0753090662749885e-01 0.0000000000000000e+00 -3.6012871654229880e-02 
7.0753090677220631e-01 0.0000000000000000e+00 -3.6012871663664472e-02 
6.9832785856289037e-01 0.0000000000000000e+00 -2.6329311263595310e-02 
6.9832785870757796e-01 0.0000000000000000e+00 -2.6329311269092440e-02 
6.7437410406062603e-01 0.0000000000000000e+00 -1.6327678202360689e-02 
6.7437410420536370e-01 0.0000000000000000e+00 -1.6327678193390784e-02 
7.3246609493413839e-01 0.0000000000000000e+00 -4.2483669208944258e-03 
7.3246609522362760e-01 0.0000000000000000e+00 -4.2483669252073057e-03 
5.9767870098018350e-01 0.0000000000000000e+00 4.7194150460605089e-03 
5.9767870083546626e-01 0.0000000000000000e+00 4.7194150550212543e-03 
5.5949578244796416e-01 0.0000000000000000e+00 7.6287950309224320e-03 
5.5949578230318264e-01 0.0000000000000000e+00 7.6287950257999566e-03 
5.0111158633974040e-01 0.0000000000000000e+00 1.0631590907116429e-02 
5.0111158619506313e-01 0.0000000000000000e+00 1.0631590902402451e-02 
4.5077590227449404e-01 0.0000000000000000e+00 5.2609826463329637e-03 
4.5077590241930365e-01 0.0000000000000000e+00 5.2609826459169831e-03 
1.9696224482049340e-01 0.0000000000000000e+00 2.3598805539625359e-02 
1.9696224482048078e-01 0.0000000000000000e+00 2.3598805539623117e-02 
3.8313623486512141e-02 0.0000000000000000e+00 4.5102857129023810e-01 
3.8313623631332970e-02 0.0000000000000000e+00 4.5102857129023832e-01 

VECTORS Displacements0 float
6.9356603532943773e-310 0.0000000000000000e+00 0.0000000000000000e+00 
1.2974590511975021e-03 0.0000000000000000e+00 -1.5341585779789087e-03 
0.0000000000000000e+00 0.0000000000000000e+00 0.0000000000000000e+00 
1.2974590512738649e-03 0.0000000000000000e+00 -1.5341585779738824e-03 
3.5771409451176208e-03 0.0000000000000000e+00 -2.8775174393798181e-03 
3.5771409452041779e-03 0.0000000000000000e+00 -2.8775174393273805e-03 
6.9315304994696488e-03 0.0000000000000000e+00 -3.9949212580769724e-03 
6.9315304995354703e-03 0.0000000000000000e+00 -3.9949212579417298e-03 
1.1113730185266995e-02 0.0000000000000000e+00 -4.9651263933931256e-03 
1.1113730185141602e-02 0.0000000000000000e+00 -4.9651263932008177e-03 
1.5998043022352075e-02 0.0000000000000000e+00 -5.7782005791358277e-03 
1.5998043022051815e-02 0.0000000000000000e+00 -5.7782005790076533e-03 
2.1387284971112693e-02 0.0000000000000000e+00 -6.3597304789014056e-03 
2.1387284970623848e-02 0.0000000000000000e+00 -6.3597304789161473e-03 
2.6943866511830058e-02 0.0000000000000000e+00 -6.6231486225640226e-03 
2.6943866511512576e-02 0.0000000000000000e+00 -6.6231486227236727e-03 
3.2270473107446594e-02 0.0000000000000000e+00 -6.5498227122638523e-03 
3.2270473107307691e-02 0.0000000000000000e+00 -6.5498227125159831e-03 
3.7055242352853131e-02 0.0000000000000000e+00 -6.2059754024596766e-03 
3.7055242352905027e-02 0.0000000000000000e+00 -6.2059754027608263e-03 
4.1149135606474090e-02 0.0000000000000000e+00 -5.6832041032868269e-03 
4.1149135606895579e-02 0.0000000000000000e+00 -5.6832041035508180e-03 
4.4488508253026651e-02 0.0000000000000000e+00 -5.0398885233395264e-03 
4.4488508253675778e-02 0.0000000000000000e+00 -5.0398885234329473e-03 
4.7022496757232031e-02 0.0000000000000000e+00 -4.3182252953870934e-03 
4.7022496757761982e-02 0.0000000000000000e+00 -4.3182252952985098e-03 
4.8710137298218430e-02 0.0000000000000000e+00 -3.5906670286720435e-03 
4.8710137298524740e-02 0.0000000000000000e+00 -3.5906670284639088e-03 
4.9643813617643182e-02 0.0000000000000000e+00 -2.9425142496989458e-03 
4.9643813617560789e-02 0.0000000000000000e+00 -2.9425142494358611e-03 
4.9982258730739831e-02 0.0000000000000000e+00 -2.4146772945481446e-03 
4.9982258730354938e-02 0.0000000000000000e+00 -2.4146772942865375e-03 
4.9869002334067367e-02 0.0000000000000000e+00 -2.0079281036647469e-03 
4.9869002333218178e-02 0.0000000000000000e+00 -2.0079281035096353e-03 
4.9412426476382304e-02 0.0000000000000000e+00 -1.7173692450921211e-03 
4.9412426475448828e-02 0.0000000000000000e+00 -1.7173692452069219e-03 
4.8727309395173217e-02 0.0000000000000000e+00 -1.5452926628395380e-03 
4.8727309394640553e-02 0.0000000000000000e+00 -1.5452926631525637e-03 
4.7948254846338113e-02 0.0000000000000000e+00 -1.4784333024228443e-03 
4.7948254846271333e-02 0.0000000000000000e+00 -1.4784333027086467e-03 
4.7201229200414210e-02 0.0000000000000000e+00 -2.1831652225961884e-03 
4.7195154644060898e-02 0.0000000000000000e+00 -1.4682280557962179e-03 
4.7201229200748568e-02 0.0000000000000000e+00 -2.1831652225500933e-03 
4.7195154644407260e-02 0.0000000000000000e+00 -1.4682280560281778e-03 
0.0000000000000000e+00 0.0000000000000000e+00 0.0000000000000000e+00 
1.3240904360504115e-03 0.0000000000000000e+00 1.3929385243699789e-03 
0.0000000000000000e+00 0.0000000000000000e+00 0.0000000000000000e+00 
1.3240904361000870e-03 0.0000000000000000e+00 1.3929385244046350e-03 
3.7150459315479726e-03 0.0000000000000000e+00 2.5329191453816718e-03 
3.7150459316576765e-03 0.0000000000000000e+00 2.5329191453925511e-03 
7.1924034154082824e-03 0.0000000000000000e+00 3.3450626984301147e-03 
7.1924034154846718e-03 0.0000000000000000e+00 3.3450626983694640e-03 
1.1504022762557964e-02 0.0000000000000000e+00 3.8987340627959720e-03 
1.1504022762465652e-02 0.0000000000000000e+00 3.8987340626820757e-03 
1.6496056279804702e-02 0.0000000000000000e+00 4.1869115336956690e-03 
1.6496056279433374e-02 0.0000000000000000e+00 4.1869115336301936e-03 
2.1944733273499956e-02 0.0000000000000000e+00 4.1627441392551884e-03 
2.1944733273073384e-02 0.0000000000000000e+00 4.1627441392902559e-03 
2.7498220303124533e-02 0.0000000000000000e+00 3.8038759956128066e-03 
2.7498220302873164e-02 0.0000000000000000e+00 3.8038759957197835e-03 
3.2760677876436071e-02 0.0000000000000000e+00 3.1716268756044131e-03 
3.2760677876308569e-02 0.0000000000000000e+00 3.1716268757411826e-03 
3.7442060270573806e-02 0.0000000000000000e+00 2.3857875727596326e-03 
3.7442060270724671e-02 0.0000000000000000e+00 2.3857875729012706e-03 
4.1431613357133149e-02 0.0000000000000000e+00 1.5479559759783016e-03 
4.1431613357636947e-02 0.0000000000000000e+00 1.5479559760702146e-03 
4.4678055965376315e-02 0.0000000000000000e+00 7.0491231703234312e-04 
4.4678055965963248e-02 0.0000000000000000e+00 7.0491231701938451e-04 
4.7136363414189829e-02 0.0000000000000000e+00 -1.2169106271360988e-04 
4.7136363414688846e-02 0.0000000000000000e+00 -1.2169106285291401e-04 
4.8771571549497572e-02 0.0000000000000000e+00 -8.8269621183347381e-04 
4.8771571549766697e-02 0.0000000000000000e+00 -8.8269621210970489e-04 
4.9675027759067431e-02 0.0000000000000000e+00 -1.5213439266438223e-03 
4.9675027759024805e-02 0.0000000000000000e+00 -1.5213439269905766e-03 
4.9999316868411248e-02 0.0000000000000000e+00 -2.0235618235107853e-03 
4.9999316868021247e-02 0.0000000000000000e+00 -2.0235618238255214e-03 
4.9885462458419440e-02 0.0000000000000000e+00 -2.4080260858309411e-03 
4.9885462457593135e-02 0.0000000000000000e+00 -2.4080260859966228e-03 
4.9428885087678648e-02 0.0000000000000000e+00 -2.6852027697510982e-03 
4.9428885086686351e-02 0.0000000000000000e+00 -2.6852027696394835e-03 
4.8742138387285854e-02 0.0000000000000000e+00 -2.8499658419506762e-03 
4.8742138386740838e-02 0.0000000000000000e+00 -2.8499658416252407e-03 
4.7964404096832357e-02 0.0000000000000000e+00 -2.9097167654711146e-03 
4.7964404096835243e-02 0.0000000000000000e+00 -2.9097167651519697e-03 
4.7210778663682423e-02 0.0000000000000000e+00 -2.9143404083601127e-03 
4.7210778663977895e-02 0.0000000000000000e+00 -2.9143404080976105e-03 

