# vtk DataFile Version 2.0

ASCII

DATASET UNSTRUCTURED_GRID

POINTS 86 double 

5.0000000000000003e-02  0.0000000000000000e+00  0.0000000000000000e+00
5.0000000000000003e-02  0.0000000000000000e+00  5.0000000000000003e-02
5.0000000000000003e-02  2.9999999999999999e-01  0.0000000000000000e+00
5.0000000000000003e-02  2.9999999999999999e-01  5.0000000000000003e-02
5.0000000000000003e-02  0.0000000000000000e+00  1.0000000000000001e-01
5.0000000000000003e-02  2.9999999999999999e-01  1.0000000000000001e-01
5.0000000000000003e-02  0.0000000000000000e+00  1.4999999999999999e-01
5.0000000000000003e-02  2.9999999999999999e-01  1.4999999999999999e-01
5.0000000000000003e-02  0.0000000000000000e+00  2.0000000000000001e-01
5.0000000000000003e-02  2.9999999999999999e-01  2.0000000000000001e-01
5.0000000000000003e-02  0.0000000000000000e+00  2.5000000000000000e-01
5.0000000000000003e-02  2.9999999999999999e-01  2.5000000000000000e-01
5.0000000000000003e-02  0.0000000000000000e+00  2.9999999999999999e-01
5.0000000000000003e-02  2.9999999999999999e-01  2.9999999999999999e-01
5.0000000000000003e-02  0.0000000000000000e+00  3.4999999999999998e-01
5.0000000000000003e-02  2.9999999999999999e-01  3.4999999999999998e-01
5.0000000000000003e-02  0.0000000000000000e+00  4.0000000000000002e-01
5.0000000000000003e-02  2.9999999999999999e-01  4.0000000000000002e-01
5.0000000000000003e-02  0.0000000000000000e+00  4.5000000000000001e-01
5.0000000000000003e-02  2.9999999999999999e-01  4.5000000000000001e-01
5.0000000000000003e-02  0.0000000000000000e+00  5.0000000000000000e-01
5.0000000000000003e-02  2.9999999999999999e-01  5.0000000000000000e-01
5.0000000000000003e-02  0.0000000000000000e+00  5.5000000000000004e-01
5.0000000000000003e-02  2.9999999999999999e-01  5.5000000000000004e-01
5.0000000000000003e-02  0.0000000000000000e+00  5.9999999999999998e-01
5.0000000000000003e-02  2.9999999999999999e-01  5.9999999999999998e-01
5.0000000000000003e-02  0.0000000000000000e+00  6.5000000000000002e-01
5.0000000000000003e-02  2.9999999999999999e-01  6.5000000000000002e-01
5.0000000000000003e-02  0.0000000000000000e+00  6.9999999999999996e-01
5.0000000000000003e-02  2.9999999999999999e-01  6.9999999999999996e-01
5.0000000000000003e-02  0.0000000000000000e+00  7.5000000000000000e-01
5.0000000000000003e-02  2.9999999999999999e-01  7.5000000000000000e-01
5.0000000000000003e-02  0.0000000000000000e+00  8.0000000000000004e-01
5.0000000000000003e-02  2.9999999999999999e-01  8.0000000000000004e-01
5.0000000000000003e-02  0.0000000000000000e+00  8.4999999999999998e-01
5.0000000000000003e-02  2.9999999999999999e-01  8.4999999999999998e-01
5.0000000000000003e-02  0.0000000000000000e+00  9.0000000000000002e-01
5.0000000000000003e-02  2.9999999999999999e-01  9.0000000000000002e-01
5.0000000000000003e-02  0.0000000000000000e+00  9.4999999999999996e-01
5.0000000000000003e-02  2.9999999999999999e-01  9.4999999999999996e-01
0.0000000000000000e+00  0.0000000000000000e+00  1.0000000000000000e+00
5.0000000000000003e-02  0.0000000000000000e+00  1.0000000000000000e+00
0.0000000000000000e+00  2.9999999999999999e-01  1.0000000000000000e+00
5.0000000000000003e-02  2.9999999999999999e-01  1.0000000000000000e+00
-5.0000000000000003e-02  0.0000000000000000e+00  0.0000000000000000e+00
-5.0000000000000003e-02  0.0000000000000000e+00  5.0000000000000003e-02
-5.0000000000000003e-02  2.9999999999999999e-01  0.0000000000000000e+00
-5.0000000000000003e-02  2.9999999999999999e-01  5.0000000000000003e-02
-5.0000000000000003e-02  0.0000000000000000e+00  1.0000000000000001e-01
-5.0000000000000003e-02  2.9999999999999999e-01  1.0000000000000001e-01
-5.0000000000000003e-02  0.0000000000000000e+00  1.4999999999999999e-01
-5.0000000000000003e-02  2.9999999999999999e-01  1.4999999999999999e-01
-5.0000000000000003e-02  0.0000000000000000e+00  2.0000000000000001e-01
-5.0000000000000003e-02  2.9999999999999999e-01  2.0000000000000001e-01
-5.0000000000000003e-02  0.0000000000000000e+00  2.5000000000000000e-01
-5.0000000000000003e-02  2.9999999999999999e-01  2.5000000000000000e-01
-5.0000000000000003e-02  0.0000000000000000e+00  2.9999999999999999e-01
-5.0000000000000003e-02  2.9999999999999999e-01  2.9999999999999999e-01
-5.0000000000000003e-02  0.0000000000000000e+00  3.4999999999999998e-01
-5.0000000000000003e-02  2.9999999999999999e-01  3.4999999999999998e-01
-5.0000000000000003e-02  0.0000000000000000e+00  4.0000000000000002e-01
-5.0000000000000003e-02  2.9999999999999999e-01  4.0000000000000002e-01
-5.0000000000000003e-02  0.0000000000000000e+00  4.5000000000000001e-01
-5.0000000000000003e-02  2.9999999999999999e-01  4.5000000000000001e-01
-5.0000000000000003e-02  0.0000000000000000e+00  5.0000000000000000e-01
-5.0000000000000003e-02  2.9999999999999999e-01  5.0000000000000000e-01
-5.0000000000000003e-02  0.0000000000000000e+00  5.5000000000000004e-01
-5.0000000000000003e-02  2.9999999999999999e-01  5.5000000000000004e-01
-5.0000000000000003e-02  0.0000000000000000e+00  5.9999999999999998e-01
-5.0000000000000003e-02  2.9999999999999999e-01  5.9999999999999998e-01
-5.0000000000000003e-02  0.0000000000000000e+00  6.5000000000000002e-01
-5.0000000000000003e-02  2.9999999999999999e-01  6.5000000000000002e-01
-5.0000000000000003e-02  0.0000000000000000e+00  6.9999999999999996e-01
-5.0000000000000003e-02  2.9999999999999999e-01  6.9999999999999996e-01
-5.0000000000000003e-02  0.0000000000000000e+00  7.5000000000000000e-01
-5.0000000000000003e-02  2.9999999999999999e-01  7.5000000000000000e-01
-5.0000000000000003e-02  0.0000000000000000e+00  8.0000000000000004e-01
-5.0000000000000003e-02  2.9999999999999999e-01  8.0000000000000004e-01
-5.0000000000000003e-02  0.0000000000000000e+00  8.4999999999999998e-01
-5.0000000000000003e-02  2.9999999999999999e-01  8.4999999999999998e-01
-5.0000000000000003e-02  0.0000000000000000e+00  9.0000000000000002e-01
-5.0000000000000003e-02  2.9999999999999999e-01  9.0000000000000002e-01
-5.0000000000000003e-02  0.0000000000000000e+00  9.4999999999999996e-01
-5.0000000000000003e-02  2.9999999999999999e-01  9.4999999999999996e-01
-5.0000000000000003e-02  0.0000000000000000e+00  1.0000000000000000e+00
-5.0000000000000003e-02  2.9999999999999999e-01  1.0000000000000000e+00

CELLS 0 0


CELL_TYPES 0


POINT_DATA 86

VECTORS VertexNormals double

0.0000000000000000e+00 0.0000000000000000e+00 0.0000000000000000e+00 
0.0000000000000000e+00 0.0000000000000000e+00 0.0000000000000000e+00 
0.0000000000000000e+00 0.0000000000000000e+00 0.0000000000000000e+00 
0.0000000000000000e+00 0.0000000000000000e+00 0.0000000000000000e+00 
0.0000000000000000e+00 0.0000000000000000e+00 0.0000000000000000e+00 
0.0000000000000000e+00 0.0000000000000000e+00 0.0000000000000000e+00 
0.0000000000000000e+00 0.0000000000000000e+00 0.0000000000000000e+00 
0.0000000000000000e+00 0.0000000000000000e+00 0.0000000000000000e+00 
0.0000000000000000e+00 0.0000000000000000e+00 0.0000000000000000e+00 
0.0000000000000000e+00 0.0000000000000000e+00 0.0000000000000000e+00 
0.0000000000000000e+00 0.0000000000000000e+00 0.0000000000000000e+00 
0.0000000000000000e+00 0.0000000000000000e+00 0.0000000000000000e+00 
0.0000000000000000e+00 0.0000000000000000e+00 0.0000000000000000e+00 
0.0000000000000000e+00 0.0000000000000000e+00 0.0000000000000000e+00 
0.0000000000000000e+00 0.0000000000000000e+00 0.0000000000000000e+00 
0.0000000000000000e+00 0.0000000000000000e+00 0.0000000000000000e+00 
0.0000000000000000e+00 0.0000000000000000e+00 0.0000000000000000e+00 
0.0000000000000000e+00 0.0000000000000000e+00 0.0000000000000000e+00 
0.0000000000000000e+00 0.0000000000000000e+00 0.0000000000000000e+00 
0.0000000000000000e+00 0.0000000000000000e+00 0.0000000000000000e+00 
0.0000000000000000e+00 0.0000000000000000e+00 0.0000000000000000e+00 
0.0000000000000000e+00 0.0000000000000000e+00 0.0000000000000000e+00 
0.0000000000000000e+00 0.0000000000000000e+00 0.0000000000000000e+00 
0.0000000000000000e+00 0.0000000000000000e+00 0.0000000000000000e+00 
0.0000000000000000e+00 0.0000000000000000e+00 0.0000000000000000e+00 
0.0000000000000000e+00 0.0000000000000000e+00 0.0000000000000000e+00 
0.0000000000000000e+00 0.0000000000000000e+00 0.0000000000000000e+00 
0.0000000000000000e+00 0.0000000000000000e+00 0.0000000000000000e+00 
0.0000000000000000e+00 0.0000000000000000e+00 0.0000000000000000e+00 
0.0000000000000000e+00 0.0000000000000000e+00 0.0000000000000000e+00 
0.0000000000000000e+00 0.0000000000000000e+00 0.0000000000000000e+00 
0.0000000000000000e+00 0.0000000000000000e+00 0.0000000000000000e+00 
0.0000000000000000e+00 0.0000000000000000e+00 0.0000000000000000e+00 
0.0000000000000000e+00 0.0000000000000000e+00 0.0000000000000000e+00 
0.0000000000000000e+00 0.0000000000000000e+00 0.0000000000000000e+00 
0.0000000000000000e+00 0.0000000000000000e+00 0.0000000000000000e+00 
0.0000000000000000e+00 0.0000000000000000e+00 0.0000000000000000e+00 
0.0000000000000000e+00 0.0000000000000000e+00 0.0000000000000000e+00 
0.0000000000000000e+00 0.0000000000000000e+00 0.0000000000000000e+00 
0.0000000000000000e+00 0.0000000000000000e+00 0.0000000000000000e+00 
0.0000000000000000e+00 0.0000000000000000e+00 0.0000000000000000e+00 
0.0000000000000000e+00 0.0000000000000000e+00 0.0000000000000000e+00 
0.0000000000000000e+00 0.0000000000000000e+00 0.0000000000000000e+00 
0.0000000000000000e+00 0.0000000000000000e+00 0.0000000000000000e+00 
0.0000000000000000e+00 0.0000000000000000e+00 0.0000000000000000e+00 
0.0000000000000000e+00 0.0000000000000000e+00 0.0000000000000000e+00 
0.0000000000000000e+00 0.0000000000000000e+00 0.0000000000000000e+00 
0.0000000000000000e+00 0.0000000000000000e+00 0.0000000000000000e+00 
0.0000000000000000e+00 0.0000000000000000e+00 0.0000000000000000e+00 
0.0000000000000000e+00 0.0000000000000000e+00 0.0000000000000000e+00 
0.0000000000000000e+00 0.0000000000000000e+00 0.0000000000000000e+00 
0.0000000000000000e+00 0.0000000000000000e+00 0.0000000000000000e+00 
0.0000000000000000e+00 0.0000000000000000e+00 0.0000000000000000e+00 
0.0000000000000000e+00 0.0000000000000000e+00 0.0000000000000000e+00 
0.0000000000000000e+00 0.0000000000000000e+00 0.0000000000000000e+00 
0.0000000000000000e+00 0.0000000000000000e+00 0.0000000000000000e+00 
0.0000000000000000e+00 0.0000000000000000e+00 0.0000000000000000e+00 
0.0000000000000000e+00 0.0000000000000000e+00 0.0000000000000000e+00 
0.0000000000000000e+00 0.0000000000000000e+00 0.0000000000000000e+00 
0.0000000000000000e+00 0.0000000000000000e+00 0.0000000000000000e+00 
0.0000000000000000e+00 0.0000000000000000e+00 0.0000000000000000e+00 
0.0000000000000000e+00 0.0000000000000000e+00 0.0000000000000000e+00 
0.0000000000000000e+00 0.0000000000000000e+00 0.0000000000000000e+00 
0.0000000000000000e+00 0.0000000000000000e+00 0.0000000000000000e+00 
0.0000000000000000e+00 0.0000000000000000e+00 0.0000000000000000e+00 
0.0000000000000000e+00 0.0000000000000000e+00 0.0000000000000000e+00 
0.0000000000000000e+00 0.0000000000000000e+00 0.0000000000000000e+00 
0.0000000000000000e+00 0.0000000000000000e+00 0.0000000000000000e+00 
0.0000000000000000e+00 0.0000000000000000e+00 0.0000000000000000e+00 
0.0000000000000000e+00 0.0000000000000000e+00 0.0000000000000000e+00 
0.0000000000000000e+00 0.0000000000000000e+00 0.0000000000000000e+00 
0.0000000000000000e+00 0.0000000000000000e+00 0.0000000000000000e+00 
0.0000000000000000e+00 0.0000000000000000e+00 0.0000000000000000e+00 
0.0000000000000000e+00 0.0000000000000000e+00 0.0000000000000000e+00 
0.0000000000000000e+00 0.0000000000000000e+00 0.0000000000000000e+00 
0.0000000000000000e+00 0.0000000000000000e+00 0.0000000000000000e+00 
0.0000000000000000e+00 0.0000000000000000e+00 0.0000000000000000e+00 
0.0000000000000000e+00 0.0000000000000000e+00 0.0000000000000000e+00 
0.0000000000000000e+00 0.0000000000000000e+00 0.0000000000000000e+00 
0.0000000000000000e+00 0.0000000000000000e+00 0.0000000000000000e+00 
0.0000000000000000e+00 0.0000000000000000e+00 0.0000000000000000e+00 
0.0000000000000000e+00 0.0000000000000000e+00 0.0000000000000000e+00 
0.0000000000000000e+00 0.0000000000000000e+00 0.0000000000000000e+00 
0.0000000000000000e+00 0.0000000000000000e+00 0.0000000000000000e+00 
0.0000000000000000e+00 0.0000000000000000e+00 0.0000000000000000e+00 
0.0000000000000000e+00 0.0000000000000000e+00 0.0000000000000000e+00 

VECTORS Forces0 double
-2.9756118578726554e-01 0.0000000000000000e+00 1.5404245265956360e-02 
-6.4076516290871000e-01 0.0000000000000000e+00 4.6309754653808835e-02 
-2.9756118578878837e-01 0.0000000000000000e+00 1.5404245086240869e-02 
-6.4076516312402554e-01 0.0000000000000000e+00 4.6309754771979045e-02 
-7.3528133167916099e-01 0.0000000000000000e+00 1.0408083744770499e-01 
-7.3528133146432273e-01 0.0000000000000000e+00 1.0408083729786198e-01 
-6.2380013163254799e-01 0.0000000000000000e+00 1.2873687734600034e-01 
-6.2380013220618757e-01 0.0000000000000000e+00 1.2873687731641564e-01 
-6.0298333482414779e-01 0.0000000000000000e+00 1.4743521104940310e-01 
-6.0298333482211186e-01 0.0000000000000000e+00 1.4743521081171027e-01 
-6.2235613812662194e-01 0.0000000000000000e+00 1.7525731572349720e-01 
-6.2235613798857459e-01 0.0000000000000000e+00 1.7525731572320605e-01 
-7.3621964238285198e-01 0.0000000000000000e+00 2.4705842672554984e-01 
-7.3621964245589977e-01 0.0000000000000000e+00 2.4705842675489431e-01 
-6.1580755733710224e-01 0.0000000000000000e+00 2.3736414128493008e-01 
-6.1580755748121330e-01 0.0000000000000000e+00 2.3736414140422041e-01 
-5.9685236392049568e-01 0.0000000000000000e+00 2.4669614072218735e-01 
-5.9685236406201259e-01 0.0000000000000000e+00 2.4669614078222624e-01 
-6.1283711111850003e-01 0.0000000000000000e+00 2.6981059109611227e-01 
-6.1283711111743422e-01 0.0000000000000000e+00 2.6981059112630901e-01 
-7.2101327433405893e-01 0.0000000000000000e+00 3.4117012405261254e-01 
-7.2101327419169292e-01 0.0000000000000000e+00 3.4117012408311626e-01 
-6.0290284921131687e-01 0.0000000000000000e+00 3.0140236696099237e-01 
-6.0290284964006147e-01 0.0000000000000000e+00 3.0140236687041150e-01 
-5.8365361253184589e-01 0.0000000000000000e+00 3.0047175269366266e-01 
-5.8365361245870018e-01 0.0000000000000000e+00 3.0047175266482606e-01 
-5.9483923148523254e-01 0.0000000000000000e+00 3.1465850613325386e-01 
-5.9483923148782836e-01 0.0000000000000000e+00 3.1465850604416379e-01 
-6.9405915913431337e-01 0.0000000000000000e+00 3.7865831124066124e-01 
-6.9405915899490256e-01 0.0000000000000000e+00 3.7865831127115357e-01 
-5.7905712866532388e-01 0.0000000000000000e+00 3.2237979157057511e-01 
-5.7905712844541801e-01 0.0000000000000000e+00 3.2237979163058217e-01 
-5.6018084939641344e-01 0.0000000000000000e+00 3.1482532069158103e-01 
-5.6018084947329627e-01 0.0000000000000000e+00 3.1482532069134694e-01 
-5.6929880551612966e-01 0.0000000000000000e+00 3.2215709587347457e-01 
-5.6929880587225412e-01 0.0000000000000000e+00 3.2215709602323939e-01 
-6.4834946768211610e-01 0.0000000000000000e+00 3.7349209135459227e-01 
-6.4834946739178911e-01 0.0000000000000000e+00 3.7349209144403844e-01 
-6.0079790745342987e-01 0.0000000000000000e+00 3.3204527187999511e-01 
-6.0079790724145365e-01 0.0000000000000000e+00 3.3204527193952271e-01 
-2.2860511716853760e-01 0.0000000000000000e+00 -4.0098456466776816e-01 
-3.3605764234230223e-01 0.0000000000000000e+00 -4.7070026395701188e-02 
-2.2860511745820411e-01 0.0000000000000000e+00 -4.0098456478700784e-01 
-3.3605764212676059e-01 0.0000000000000000e+00 -4.7070026396313157e-02 
6.2114775104143094e-01 0.0000000000000000e+00 -4.2059845891700254e-02 
1.7192101631979528e+00 0.0000000000000000e+00 -1.0796597282283076e-01 
6.2114775089946361e-01 0.0000000000000000e+00 -4.2059845774438595e-02 
1.7192101632705621e+00 0.0000000000000000e+00 -1.0796597288300347e-01 
1.7438956599598023e+00 0.0000000000000000e+00 -2.4629641704694000e-01 
1.7438956601734485e+00 0.0000000000000000e+00 -2.4629641695684734e-01 
1.4954314183963373e+00 0.0000000000000000e+00 -3.0357658427029632e-01 
1.4954314186125355e+00 0.0000000000000000e+00 -3.0357658418077282e-01 
1.4541350216662063e+00 0.0000000000000000e+00 -3.5204951598158846e-01 
1.4541350218085420e+00 0.0000000000000000e+00 -3.5204951601075801e-01 
1.4387889107667815e+00 0.0000000000000000e+00 -4.0392133342404984e-01 
1.4387889110521974e+00 0.0000000000000000e+00 -4.0392133357275817e-01 
1.6160388813643476e+00 0.0000000000000000e+00 -5.3989116600014753e-01 
1.6160388810085118e+00 0.0000000000000000e+00 -5.3989116608969701e-01 
1.3330531531013485e+00 0.0000000000000000e+00 -5.0992845632372319e-01 
1.3330531531007470e+00 0.0000000000000000e+00 -5.0992845644300822e-01 
1.2831800781020717e+00 0.0000000000000000e+00 -5.2662292325294213e-01 
1.2831800780293456e+00 0.0000000000000000e+00 -5.2662292328337623e-01 
1.2545333032276169e+00 0.0000000000000000e+00 -5.5018183378611374e-01 
1.2545333030861641e+00 0.0000000000000000e+00 -5.5018183375638541e-01 
1.3980054474120809e+00 0.0000000000000000e+00 -6.5841452880511508e-01 
1.3980054474114563e+00 0.0000000000000000e+00 -6.5841452883516149e-01 
1.1522436194863026e+00 0.0000000000000000e+00 -5.7257445464300227e-01 
1.1522436193426211e+00 0.0000000000000000e+00 -5.7257445452383138e-01 
1.1087702232947143e+00 0.0000000000000000e+00 -5.6736623884131288e-01 
1.1087702233654027e+00 0.0000000000000000e+00 -5.6736623881155912e-01 
1.0855656334609842e+00 0.0000000000000000e+00 -5.7138663239885101e-01 
1.0855656333896759e+00 0.0000000000000000e+00 -5.7138663236910725e-01 
1.2090452841053252e+00 0.0000000000000000e+00 -6.5594650994115478e-01 
1.2090452841052524e+00 0.0000000000000000e+00 -6.5594650991149150e-01 
9.8995259243858824e-01 0.0000000000000000e+00 -5.4763390740262929e-01 
9.8995259250957190e-01 0.0000000000000000e+00 -5.4763390743265816e-01 
9.4421269109456230e-01 0.0000000000000000e+00 -5.2680795236186917e-01 
9.4421269109481043e-01 0.0000000000000000e+00 -5.2680795239164502e-01 
9.1779625728801695e-01 0.0000000000000000e+00 -5.1659267590123092e-01 
9.1779625735926940e-01 0.0000000000000000e+00 -5.1659267596109493e-01 
9.8996093522910178e-01 0.0000000000000000e+00 -5.5871033918895796e-01 
9.8996093530037566e-01 0.0000000000000000e+00 -5.5871033915893831e-01 
8.3308503367682896e-01 0.0000000000000000e+00 -4.8106488090815619e-01 
8.3308503374841236e-01 0.0000000000000000e+00 -4.8106488090817456e-01 
2.8929852102814807e-01 0.0000000000000000e+00 -2.4550002363303361e-01 
2.8929852102757680e-01 0.0000000000000000e+00 -2.4550002366289661e-01 

VECTORS Displacements0 double
6.9356603590018236e-310 0.0000000000000000e+00 0.0000000000000000e+00 
2.6542096833597306e-03 0.0000000000000000e+00 -3.7884126466248419e-03 
0.0000000000000000e+00 0.0000000000000000e+00 0.0000000000000000e+00 
2.6542096832679559e-03 0.0000000000000000e+00 -3.7884126465387901e-03 
7.7848184618768889e-03 0.0000000000000000e+00 -7.5204876191370396e-03 
7.7848184617073561e-03 0.0000000000000000e+00 -7.5204876190279003e-03 
1.5810374555564721e-02 0.0000000000000000e+00 -1.1145585241183821e-02 
1.5810374555232466e-02 0.0000000000000000e+00 -1.1145585241091912e-02 
2.6232335421212415e-02 0.0000000000000000e+00 -1.4926585907647042e-02 
2.6232335420882057e-02 0.0000000000000000e+00 -1.4926585907626707e-02 
3.8870012236572521e-02 0.0000000000000000e+00 -1.9007527839433588e-02 
3.8870012236352856e-02 0.0000000000000000e+00 -1.9007527839479295e-02 
5.3546576701864232e-02 0.0000000000000000e+00 -2.3457620015860631e-02 
5.3546576701789590e-02 0.0000000000000000e+00 -2.3457620015937750e-02 
7.0077562146940928e-02 0.0000000000000000e+00 -2.8276338495369042e-02 
7.0077562147068201e-02 0.0000000000000000e+00 -2.8276338495447407e-02 
8.8213217051998249e-02 0.0000000000000000e+00 -3.3415982590381921e-02 
8.8213217052251644e-02 0.0000000000000000e+00 -3.3415982590397401e-02 
1.0768150048986357e-01 0.0000000000000000e+00 -3.8829372522292988e-02 
1.0768150049007483e-01 0.0000000000000000e+00 -3.8829372522176775e-02 
1.2823848764467966e-01 0.0000000000000000e+00 -4.4494209375293997e-02 
1.2823848764474860e-01 0.0000000000000000e+00 -4.4494209375109825e-02 
1.4971316936788920e-01 0.0000000000000000e+00 -5.0407140017432753e-02 
1.4971316936776505e-01 0.0000000000000000e+00 -5.0407140017274921e-02 
1.7196767924631715e-01 0.0000000000000000e+00 -5.6546642366258407e-02 
1.7196767924617867e-01 0.0000000000000000e+00 -5.6546642366264187e-02 
1.9487673098376848e-01 0.0000000000000000e+00 -6.2876250881812035e-02 
1.9487673098379296e-01 0.0000000000000000e+00 -6.2876250882036466e-02 
2.1831855253451829e-01 0.0000000000000000e+00 -6.9361603103706537e-02 
2.1831855253477117e-01 0.0000000000000000e+00 -6.9361603104049069e-02 
2.4220950888264398e-01 0.0000000000000000e+00 -7.5984861272385670e-02 
2.4220950888301832e-01 0.0000000000000000e+00 -7.5984861272700835e-02 
2.6648512886928372e-01 0.0000000000000000e+00 -8.2714979487764073e-02 
2.6648512886962405e-01 0.0000000000000000e+00 -8.2714979487952492e-02 
2.9107720532388220e-01 0.0000000000000000e+00 -8.9497503968014022e-02 
2.9107720532407022e-01 0.0000000000000000e+00 -8.9497503967977149e-02 
3.1587895147626227e-01 0.0000000000000000e+00 -9.6265771139302181e-02 
3.1587895147621875e-01 0.0000000000000000e+00 -9.6265771138993372e-02 
3.4077750349717545e-01 0.0000000000000000e+00 -1.0298332089246921e-01 
3.4077750349674280e-01 0.0000000000000000e+00 -1.0298332089185447e-01 
3.7234522946427329e-01 0.0000000000000000e+00 -8.4743306259412038e-02 
3.6569386791522795e-01 0.0000000000000000e+00 -1.0965309994604899e-01 
3.7234522946309678e-01 0.0000000000000000e+00 -8.4743306258979217e-02 
3.6569386791434239e-01 0.0000000000000000e+00 -1.0965309994515643e-01 
0.0000000000000000e+00 0.0000000000000000e+00 0.0000000000000000e+00 
2.9076440734058730e-03 0.0000000000000000e+00 3.2329707688978173e-03 
0.0000000000000000e+00 0.0000000000000000e+00 0.0000000000000000e+00 
2.9076440733026955e-03 0.0000000000000000e+00 3.2329707688548634e-03 
8.7316990245971168e-03 0.0000000000000000e+00 5.9765738836669510e-03 
8.7316990243660568e-03 0.0000000000000000e+00 5.9765738836422572e-03 
1.7644564503198040e-02 0.0000000000000000e+00 7.8713180363705216e-03 
1.7644564502898596e-02 0.0000000000000000e+00 7.8713180364132825e-03 
2.9135859062673748e-02 0.0000000000000000e+00 8.9709030740172720e-03 
2.9135859062409755e-02 0.0000000000000000e+00 8.9709030741471265e-03 
4.2951836319620129e-02 0.0000000000000000e+00 9.2595108604021318e-03 
4.2951836319476772e-02 0.0000000000000000e+00 9.2595108605881445e-03 
5.8865514033808110e-02 0.0000000000000000e+00 8.7041166003460953e-03 
5.8865514033845587e-02 0.0000000000000000e+00 8.7041166005265465e-03 
7.6605309800206370e-02 0.0000000000000000e+00 7.2768425766589900e-03 
7.6605309800452090e-02 0.0000000000000000e+00 7.2768425767622156e-03 
9.5872181956270730e-02 0.0000000000000000e+00 4.9914241230900429e-03 
9.5872181956548147e-02 0.0000000000000000e+00 4.9914241231014339e-03 
1.1635242957582119e-01 0.0000000000000000e+00 1.9308846193362573e-03 
1.1635242957596864e-01 0.0000000000000000e+00 1.9308846193041075e-03 
1.3780508542283926e-01 0.0000000000000000e+00 -1.7926515850638168e-03 
1.3780508542279971e-01 0.0000000000000000e+00 -1.7926515850447008e-03 
1.6005780951801107e-01 0.0000000000000000e+00 -6.0774930932822506e-03 
1.6005780951785886e-01 0.0000000000000000e+00 -6.0774930931544787e-03 
1.8299431507835945e-01 0.0000000000000000e+00 -1.0858664986408530e-02 
1.8299431507828251e-01 0.0000000000000000e+00 -1.0858664986211049e-02 
2.0648635731906426e-01 0.0000000000000000e+00 -1.6069354024652548e-02 
2.0648635731921444e-01 0.0000000000000000e+00 -1.6069354024542043e-02 
2.3042565419067945e-01 0.0000000000000000e+00 -2.1639451801831695e-02 
2.3042565419099154e-01 0.0000000000000000e+00 -2.1639451801923767e-02 
2.5472828941987474e-01 0.0000000000000000e+00 -2.7505688925914047e-02 
2.5472828942020281e-01 0.0000000000000000e+00 -2.7505688926218252e-02 
2.7934196594384286e-01 0.0000000000000000e+00 -3.3638810617538775e-02 
2.7934196594403521e-01 0.0000000000000000e+00 -3.3638810617973670e-02 
3.0417703555590492e-01 0.0000000000000000e+00 -4.0005639003568218e-02 
3.0417703555582393e-01 0.0000000000000000e+00 -4.0005639004027996e-02 
3.2912132869888533e-01 0.0000000000000000e+00 -4.6547574707791028e-02 
3.2912132869841049e-01 0.0000000000000000e+00 -4.6547574708185373e-02 
3.5407477458670272e-01 0.0000000000000000e+00 -5.3179085545252566e-02 
3.5407477458575320e-01 0.0000000000000000e+00 -5.3179085545501048e-02 
3.7900336478875252e-01 0.0000000000000000e+00 -5.9829167135554272e-02 
3.7900336478731722e-01 0.0000000000000000e+00 -5.9829167135570502e-02 

