# vtk DataFile Version 2.0

ASCII

DATASET UNSTRUCTURED_GRID

POINTS 86 double 

5.0000000000000003e-02  0.0000000000000000e+00  0.0000000000000000e+00
5.0000000000000003e-02  0.0000000000000000e+00  5.0000000000000003e-02
5.0000000000000003e-02  2.9999999999999999e-01  0.0000000000000000e+00
5.0000000000000003e-02  2.9999999999999999e-01  5.0000000000000003e-02
5.0000000000000003e-02  0.0000000000000000e+00  1.0000000000000001e-01
5.0000000000000003e-02  2.9999999999999999e-01  1.0000000000000001e-01
5.0000000000000003e-02  0.0000000000000000e+00  1.4999999999999999e-01
5.0000000000000003e-02  2.9999999999999999e-01  1.4999999999999999e-01
5.0000000000000003e-02  0.0000000000000000e+00  2.0000000000000001e-01
5.0000000000000003e-02  2.9999999999999999e-01  2.0000000000000001e-01
5.0000000000000003e-02  0.0000000000000000e+00  2.5000000000000000e-01
5.0000000000000003e-02  2.9999999999999999e-01  2.5000000000000000e-01
5.0000000000000003e-02  0.0000000000000000e+00  2.9999999999999999e-01
5.0000000000000003e-02  2.9999999999999999e-01  2.9999999999999999e-01
5.0000000000000003e-02  0.0000000000000000e+00  3.4999999999999998e-01
5.0000000000000003e-02  2.9999999999999999e-01  3.4999999999999998e-01
5.0000000000000003e-02  0.0000000000000000e+00  4.0000000000000002e-01
5.0000000000000003e-02  2.9999999999999999e-01  4.0000000000000002e-01
5.0000000000000003e-02  0.0000000000000000e+00  4.5000000000000001e-01
5.0000000000000003e-02  2.9999999999999999e-01  4.5000000000000001e-01
5.0000000000000003e-02  0.0000000000000000e+00  5.0000000000000000e-01
5.0000000000000003e-02  2.9999999999999999e-01  5.0000000000000000e-01
5.0000000000000003e-02  0.0000000000000000e+00  5.5000000000000004e-01
5.0000000000000003e-02  2.9999999999999999e-01  5.5000000000000004e-01
5.0000000000000003e-02  0.0000000000000000e+00  5.9999999999999998e-01
5.0000000000000003e-02  2.9999999999999999e-01  5.9999999999999998e-01
5.0000000000000003e-02  0.0000000000000000e+00  6.5000000000000002e-01
5.0000000000000003e-02  2.9999999999999999e-01  6.5000000000000002e-01
5.0000000000000003e-02  0.0000000000000000e+00  6.9999999999999996e-01
5.0000000000000003e-02  2.9999999999999999e-01  6.9999999999999996e-01
5.0000000000000003e-02  0.0000000000000000e+00  7.5000000000000000e-01
5.0000000000000003e-02  2.9999999999999999e-01  7.5000000000000000e-01
5.0000000000000003e-02  0.0000000000000000e+00  8.0000000000000004e-01
5.0000000000000003e-02  2.9999999999999999e-01  8.0000000000000004e-01
5.0000000000000003e-02  0.0000000000000000e+00  8.4999999999999998e-01
5.0000000000000003e-02  2.9999999999999999e-01  8.4999999999999998e-01
5.0000000000000003e-02  0.0000000000000000e+00  9.0000000000000002e-01
5.0000000000000003e-02  2.9999999999999999e-01  9.0000000000000002e-01
5.0000000000000003e-02  0.0000000000000000e+00  9.4999999999999996e-01
5.0000000000000003e-02  2.9999999999999999e-01  9.4999999999999996e-01
0.0000000000000000e+00  0.0000000000000000e+00  1.0000000000000000e+00
5.0000000000000003e-02  0.0000000000000000e+00  1.0000000000000000e+00
0.0000000000000000e+00  2.9999999999999999e-01  1.0000000000000000e+00
5.0000000000000003e-02  2.9999999999999999e-01  1.0000000000000000e+00
-5.0000000000000003e-02  0.0000000000000000e+00  0.0000000000000000e+00
-5.0000000000000003e-02  0.0000000000000000e+00  5.0000000000000003e-02
-5.0000000000000003e-02  2.9999999999999999e-01  0.0000000000000000e+00
-5.0000000000000003e-02  2.9999999999999999e-01  5.0000000000000003e-02
-5.0000000000000003e-02  0.0000000000000000e+00  1.0000000000000001e-01
-5.0000000000000003e-02  2.9999999999999999e-01  1.0000000000000001e-01
-5.0000000000000003e-02  0.0000000000000000e+00  1.4999999999999999e-01
-5.0000000000000003e-02  2.9999999999999999e-01  1.4999999999999999e-01
-5.0000000000000003e-02  0.0000000000000000e+00  2.0000000000000001e-01
-5.0000000000000003e-02  2.9999999999999999e-01  2.0000000000000001e-01
-5.0000000000000003e-02  0.0000000000000000e+00  2.5000000000000000e-01
-5.0000000000000003e-02  2.9999999999999999e-01  2.5000000000000000e-01
-5.0000000000000003e-02  0.0000000000000000e+00  2.9999999999999999e-01
-5.0000000000000003e-02  2.9999999999999999e-01  2.9999999999999999e-01
-5.0000000000000003e-02  0.0000000000000000e+00  3.4999999999999998e-01
-5.0000000000000003e-02  2.9999999999999999e-01  3.4999999999999998e-01
-5.0000000000000003e-02  0.0000000000000000e+00  4.0000000000000002e-01
-5.0000000000000003e-02  2.9999999999999999e-01  4.0000000000000002e-01
-5.0000000000000003e-02  0.0000000000000000e+00  4.5000000000000001e-01
-5.0000000000000003e-02  2.9999999999999999e-01  4.5000000000000001e-01
-5.0000000000000003e-02  0.0000000000000000e+00  5.0000000000000000e-01
-5.0000000000000003e-02  2.9999999999999999e-01  5.0000000000000000e-01
-5.0000000000000003e-02  0.0000000000000000e+00  5.5000000000000004e-01
-5.0000000000000003e-02  2.9999999999999999e-01  5.5000000000000004e-01
-5.0000000000000003e-02  0.0000000000000000e+00  5.9999999999999998e-01
-5.0000000000000003e-02  2.9999999999999999e-01  5.9999999999999998e-01
-5.0000000000000003e-02  0.0000000000000000e+00  6.5000000000000002e-01
-5.0000000000000003e-02  2.9999999999999999e-01  6.5000000000000002e-01
-5.0000000000000003e-02  0.0000000000000000e+00  6.9999999999999996e-01
-5.0000000000000003e-02  2.9999999999999999e-01  6.9999999999999996e-01
-5.0000000000000003e-02  0.0000000000000000e+00  7.5000000000000000e-01
-5.0000000000000003e-02  2.9999999999999999e-01  7.5000000000000000e-01
-5.0000000000000003e-02  0.0000000000000000e+00  8.0000000000000004e-01
-5.0000000000000003e-02  2.9999999999999999e-01  8.0000000000000004e-01
-5.0000000000000003e-02  0.0000000000000000e+00  8.4999999999999998e-01
-5.0000000000000003e-02  2.9999999999999999e-01  8.4999999999999998e-01
-5.0000000000000003e-02  0.0000000000000000e+00  9.0000000000000002e-01
-5.0000000000000003e-02  2.9999999999999999e-01  9.0000000000000002e-01
-5.0000000000000003e-02  0.0000000000000000e+00  9.4999999999999996e-01
-5.0000000000000003e-02  2.9999999999999999e-01  9.4999999999999996e-01
-5.0000000000000003e-02  0.0000000000000000e+00  1.0000000000000000e+00
-5.0000000000000003e-02  2.9999999999999999e-01  1.0000000000000000e+00

CELLS 0 0


CELL_TYPES 0


POINT_DATA 86

VECTORS VertexNormals double

0.0000000000000000e+00 0.0000000000000000e+00 0.0000000000000000e+00 
0.0000000000000000e+00 0.0000000000000000e+00 0.0000000000000000e+00 
0.0000000000000000e+00 0.0000000000000000e+00 0.0000000000000000e+00 
0.0000000000000000e+00 0.0000000000000000e+00 0.0000000000000000e+00 
0.0000000000000000e+00 0.0000000000000000e+00 0.0000000000000000e+00 
0.0000000000000000e+00 0.0000000000000000e+00 0.0000000000000000e+00 
0.0000000000000000e+00 0.0000000000000000e+00 0.0000000000000000e+00 
0.0000000000000000e+00 0.0000000000000000e+00 0.0000000000000000e+00 
0.0000000000000000e+00 0.0000000000000000e+00 0.0000000000000000e+00 
0.0000000000000000e+00 0.0000000000000000e+00 0.0000000000000000e+00 
0.0000000000000000e+00 0.0000000000000000e+00 0.0000000000000000e+00 
0.0000000000000000e+00 0.0000000000000000e+00 0.0000000000000000e+00 
0.0000000000000000e+00 0.0000000000000000e+00 0.0000000000000000e+00 
0.0000000000000000e+00 0.0000000000000000e+00 0.0000000000000000e+00 
0.0000000000000000e+00 0.0000000000000000e+00 0.0000000000000000e+00 
0.0000000000000000e+00 0.0000000000000000e+00 0.0000000000000000e+00 
0.0000000000000000e+00 0.0000000000000000e+00 0.0000000000000000e+00 
0.0000000000000000e+00 0.0000000000000000e+00 0.0000000000000000e+00 
0.0000000000000000e+00 0.0000000000000000e+00 0.0000000000000000e+00 
0.0000000000000000e+00 0.0000000000000000e+00 0.0000000000000000e+00 
0.0000000000000000e+00 0.0000000000000000e+00 0.0000000000000000e+00 
0.0000000000000000e+00 0.0000000000000000e+00 0.0000000000000000e+00 
0.0000000000000000e+00 0.0000000000000000e+00 0.0000000000000000e+00 
0.0000000000000000e+00 0.0000000000000000e+00 0.0000000000000000e+00 
0.0000000000000000e+00 0.0000000000000000e+00 0.0000000000000000e+00 
0.0000000000000000e+00 0.0000000000000000e+00 0.0000000000000000e+00 
0.0000000000000000e+00 0.0000000000000000e+00 0.0000000000000000e+00 
0.0000000000000000e+00 0.0000000000000000e+00 0.0000000000000000e+00 
0.0000000000000000e+00 0.0000000000000000e+00 0.0000000000000000e+00 
0.0000000000000000e+00 0.0000000000000000e+00 0.0000000000000000e+00 
0.0000000000000000e+00 0.0000000000000000e+00 0.0000000000000000e+00 
0.0000000000000000e+00 0.0000000000000000e+00 0.0000000000000000e+00 
0.0000000000000000e+00 0.0000000000000000e+00 0.0000000000000000e+00 
0.0000000000000000e+00 0.0000000000000000e+00 0.0000000000000000e+00 
0.0000000000000000e+00 0.0000000000000000e+00 0.0000000000000000e+00 
0.0000000000000000e+00 0.0000000000000000e+00 0.0000000000000000e+00 
0.0000000000000000e+00 0.0000000000000000e+00 0.0000000000000000e+00 
0.0000000000000000e+00 0.0000000000000000e+00 0.0000000000000000e+00 
0.0000000000000000e+00 0.0000000000000000e+00 0.0000000000000000e+00 
0.0000000000000000e+00 0.0000000000000000e+00 0.0000000000000000e+00 
0.0000000000000000e+00 0.0000000000000000e+00 0.0000000000000000e+00 
0.0000000000000000e+00 0.0000000000000000e+00 0.0000000000000000e+00 
0.0000000000000000e+00 0.0000000000000000e+00 0.0000000000000000e+00 
0.0000000000000000e+00 0.0000000000000000e+00 0.0000000000000000e+00 
0.0000000000000000e+00 0.0000000000000000e+00 0.0000000000000000e+00 
0.0000000000000000e+00 0.0000000000000000e+00 0.0000000000000000e+00 
0.0000000000000000e+00 0.0000000000000000e+00 0.0000000000000000e+00 
0.0000000000000000e+00 0.0000000000000000e+00 0.0000000000000000e+00 
0.0000000000000000e+00 0.0000000000000000e+00 0.0000000000000000e+00 
0.0000000000000000e+00 0.0000000000000000e+00 0.0000000000000000e+00 
0.0000000000000000e+00 0.0000000000000000e+00 0.0000000000000000e+00 
0.0000000000000000e+00 0.0000000000000000e+00 0.0000000000000000e+00 
0.0000000000000000e+00 0.0000000000000000e+00 0.0000000000000000e+00 
0.0000000000000000e+00 0.0000000000000000e+00 0.0000000000000000e+00 
0.0000000000000000e+00 0.0000000000000000e+00 0.0000000000000000e+00 
0.0000000000000000e+00 0.0000000000000000e+00 0.0000000000000000e+00 
0.0000000000000000e+00 0.0000000000000000e+00 0.0000000000000000e+00 
0.0000000000000000e+00 0.0000000000000000e+00 0.0000000000000000e+00 
0.0000000000000000e+00 0.0000000000000000e+00 0.0000000000000000e+00 
0.0000000000000000e+00 0.0000000000000000e+00 0.0000000000000000e+00 
0.0000000000000000e+00 0.0000000000000000e+00 0.0000000000000000e+00 
0.0000000000000000e+00 0.0000000000000000e+00 0.0000000000000000e+00 
0.0000000000000000e+00 0.0000000000000000e+00 0.0000000000000000e+00 
0.0000000000000000e+00 0.0000000000000000e+00 0.0000000000000000e+00 
0.0000000000000000e+00 0.0000000000000000e+00 0.0000000000000000e+00 
0.0000000000000000e+00 0.0000000000000000e+00 0.0000000000000000e+00 
0.0000000000000000e+00 0.0000000000000000e+00 0.0000000000000000e+00 
0.0000000000000000e+00 0.0000000000000000e+00 0.0000000000000000e+00 
0.0000000000000000e+00 0.0000000000000000e+00 0.0000000000000000e+00 
0.0000000000000000e+00 0.0000000000000000e+00 0.0000000000000000e+00 
0.0000000000000000e+00 0.0000000000000000e+00 0.0000000000000000e+00 
0.0000000000000000e+00 0.0000000000000000e+00 0.0000000000000000e+00 
0.0000000000000000e+00 0.0000000000000000e+00 0.0000000000000000e+00 
0.0000000000000000e+00 0.0000000000000000e+00 0.0000000000000000e+00 
0.0000000000000000e+00 0.0000000000000000e+00 0.0000000000000000e+00 
0.0000000000000000e+00 0.0000000000000000e+00 0.0000000000000000e+00 
0.0000000000000000e+00 0.0000000000000000e+00 0.0000000000000000e+00 
0.0000000000000000e+00 0.0000000000000000e+00 0.0000000000000000e+00 
0.0000000000000000e+00 0.0000000000000000e+00 0.0000000000000000e+00 
0.0000000000000000e+00 0.0000000000000000e+00 0.0000000000000000e+00 
0.0000000000000000e+00 0.0000000000000000e+00 0.0000000000000000e+00 
0.0000000000000000e+00 0.0000000000000000e+00 0.0000000000000000e+00 
0.0000000000000000e+00 0.0000000000000000e+00 0.0000000000000000e+00 
0.0000000000000000e+00 0.0000000000000000e+00 0.0000000000000000e+00 
0.0000000000000000e+00 0.0000000000000000e+00 0.0000000000000000e+00 
0.0000000000000000e+00 0.0000000000000000e+00 0.0000000000000000e+00 

VECTORS Forces0 double
1.8420079647602370e-02 0.0000000000000000e+00 2.0987565029772621e-03 
1.6970780733205859e-01 0.0000000000000000e+00 -8.0596624143052173e-03 
1.8420078920336681e-02 0.0000000000000000e+00 2.0987565268257577e-03 
1.6970780764372531e-01 0.0000000000000000e+00 -8.0596624143118249e-03 
1.2446861344682163e-01 0.0000000000000000e+00 -8.9291109371175664e-03 
1.2446861292752499e-01 0.0000000000000000e+00 -8.9291109369911675e-03 
1.2440553691154112e-01 0.0000000000000000e+00 -1.2692394035402224e-02 
1.2440553722304029e-01 0.0000000000000000e+00 -1.2692394109044823e-02 
1.3694790418304126e-01 0.0000000000000000e+00 -1.6868066760270226e-02 
1.3694790418294306e-01 0.0000000000000000e+00 -1.6868066784678386e-02 
1.2850796521745914e-01 0.0000000000000000e+00 -1.8284260755356850e-02 
1.2850796417989066e-01 0.0000000000000000e+00 -1.8284260705208652e-02 
1.4379644040962289e-01 0.0000000000000000e+00 -2.3442911674779316e-02 
1.4379644061811106e-01 0.0000000000000000e+00 -2.3442911612791904e-02 
1.4708869934144841e-01 0.0000000000000000e+00 -2.6400699554336521e-02 
1.4708869954898326e-01 0.0000000000000000e+00 -2.6400699566528102e-02 
1.6712428518551878e-01 0.0000000000000000e+00 -3.1550765706891123e-02 
1.6712428549675065e-01 0.0000000000000000e+00 -3.1550765706989670e-02 
1.6648738558321158e-01 0.0000000000000000e+00 -3.2707848478114060e-02 
1.6648738589653250e-01 0.0000000000000000e+00 -3.2707848465522361e-02 
1.9998120149452131e-01 0.0000000000000000e+00 -4.0562637911989469e-02 
1.9998120128743188e-01 0.0000000000000000e+00 -4.0562637912162088e-02 
2.0050437135589491e-01 0.0000000000000000e+00 -4.1654071312592147e-02 
2.0050437125212056e-01 0.0000000000000000e+00 -4.1654071325065940e-02 
2.2080371593457937e-01 0.0000000000000000e+00 -4.6705566097840656e-02 
2.2080371666130866e-01 0.0000000000000000e+00 -4.6705566048279808e-02 
2.2333829740594585e-01 0.0000000000000000e+00 -4.7799032014915928e-02 
2.2333829647134801e-01 0.0000000000000000e+00 -4.7799032027283833e-02 
2.6925169772576807e-01 0.0000000000000000e+00 -5.7817565750192479e-02 
2.6925169772567858e-01 0.0000000000000000e+00 -5.7817565787502523e-02 
2.5997085593523928e-01 0.0000000000000000e+00 -5.4026704382567660e-02 
2.5997085541686149e-01 0.0000000000000000e+00 -5.4026704444121436e-02 
2.7551261027316060e-01 0.0000000000000000e+00 -5.5495715141516959e-02 
2.7551261068819971e-01 0.0000000000000000e+00 -5.5495715215830341e-02 
2.7779922222099318e-01 0.0000000000000000e+00 -5.3870328920521529e-02 
2.7779922180613564e-01 0.0000000000000000e+00 -5.3870328958045215e-02 
3.1596841096468042e-01 0.0000000000000000e+00 -6.0684150599735344e-02 
3.1596841117288282e-01 0.0000000000000000e+00 -6.0684150612528645e-02 
3.1611981703013242e-01 0.0000000000000000e+00 -5.4280043181967878e-02 
3.1611981702882058e-01 0.0000000000000000e+00 -5.4280043144686534e-02 
1.3147118352873000e-01 0.0000000000000000e+00 6.3767912198392118e-01 
1.3200524086337595e-01 0.0000000000000000e+00 1.2104587436713470e-01 
1.3147118363358015e-01 0.0000000000000000e+00 6.3767912199619547e-01 
1.3200524075994985e-01 0.0000000000000000e+00 1.2104587433010157e-01 
3.6482926252378711e-01 0.0000000000000000e+00 -8.4441047959164673e-03 
1.0619544109160588e+00 0.0000000000000000e+00 -3.9153076602571751e-02 
3.6482926241981950e-01 0.0000000000000000e+00 -8.4441047588923197e-03 
1.0619544107082497e+00 0.0000000000000000e+00 -3.9153076565262457e-02 
1.0671326826813521e+00 0.0000000000000000e+00 -7.6866958028803431e-02 
1.0671326827852203e+00 0.0000000000000000e+00 -7.6866957979070186e-02 
9.3483266929558351e-01 0.0000000000000000e+00 -9.8350882263191983e-02 
9.3483266950335386e-01 0.0000000000000000e+00 -9.8350882238123688e-02 
9.2479175719167606e-01 0.0000000000000000e+00 -1.1567844477468246e-01 
9.2479175698394978e-01 0.0000000000000000e+00 -1.1567844479961266e-01 
9.1869136001083285e-01 0.0000000000000000e+00 -1.3251266961629551e-01 
9.1869135969992322e-01 0.0000000000000000e+00 -1.3251266960366587e-01 
1.0421987844030478e+00 0.0000000000000000e+00 -1.7446408447506484e-01 
1.0421987844026723e+00 0.0000000000000000e+00 -1.7446408447495609e-01 
8.8191228688995427e-01 0.0000000000000000e+00 -1.6292478030618485e-01 
8.8191228699434776e-01 0.0000000000000000e+00 -1.6292478029359336e-01 
8.6467752186866398e-01 0.0000000000000000e+00 -1.6703151766048682e-01 
8.6467752176578394e-01 0.0000000000000000e+00 -1.6703151764826643e-01 
8.4696027978913224e-01 0.0000000000000000e+00 -1.7046943775970941e-01 
8.4696027989282863e-01 0.0000000000000000e+00 -1.7046943772266054e-01 
9.4224007272205790e-01 0.0000000000000000e+00 -1.9627390613319026e-01 
9.4224007261826581e-01 0.0000000000000000e+00 -1.9627390614570769e-01 
7.8343889639704101e-01 0.0000000000000000e+00 -1.6696831932713677e-01 
7.8343889650084797e-01 0.0000000000000000e+00 -1.6696831935191775e-01 
7.5702382349135455e-01 0.0000000000000000e+00 -1.6361462854396985e-01 
7.5702382349108810e-01 0.0000000000000000e+00 -1.6361462854381867e-01 
7.2830127437203585e-01 0.0000000000000000e+00 -1.5941524674837343e-01 
7.2830127426830338e-01 0.0000000000000000e+00 -1.5941524674831453e-01 
7.8553428425619853e-01 0.0000000000000000e+00 -1.7218169342236686e-01 
7.8553428415240423e-01 0.0000000000000000e+00 -1.7218169339753303e-01 
6.3237293947441586e-01 0.0000000000000000e+00 -1.3387100734576732e-01 
6.3237293957835961e-01 0.0000000000000000e+00 -1.3387100735821592e-01 
5.9209050270485719e-01 0.0000000000000000e+00 -1.2179869240781542e-01 
5.9209050270478725e-01 0.0000000000000000e+00 -1.2179869240781384e-01 
5.4511027309389393e-01 0.0000000000000000e+00 -1.0801018225145533e-01 
5.4511027340530982e-01 0.0000000000000000e+00 -1.0801018226390696e-01 
5.2246998671974521e-01 0.0000000000000000e+00 -1.0418441462543143e-01 
5.2246998661601496e-01 0.0000000000000000e+00 -1.0418441462541234e-01 
3.2050644775947501e-01 0.0000000000000000e+00 -5.2068829343133075e-02 
3.2050644786330962e-01 0.0000000000000000e+00 -5.2068829343113888e-02 
1.5995531340918365e-01 0.0000000000000000e+00 2.5675619524459775e-01 
1.5995531351276487e-01 0.0000000000000000e+00 2.5675619524459770e-01 

VECTORS Displacements0 double
6.9356603523157320e-310 0.0000000000000000e+00 0.0000000000000000e+00 
1.2540659810107292e-03 0.0000000000000000e+00 -1.6914607708326580e-03 
0.0000000000000000e+00 0.0000000000000000e+00 0.0000000000000000e+00 
1.2540659807150072e-03 0.0000000000000000e+00 -1.6914607707045361e-03 
3.9158762798602231e-03 0.0000000000000000e+00 -3.3511034760608949e-03 
3.9158762792224182e-03 0.0000000000000000e+00 -3.3511034760196714e-03 
8.1467575606421847e-03 0.0000000000000000e+00 -4.8885855974963423e-03 
8.1467575600486803e-03 0.0000000000000000e+00 -4.8885855976285300e-03 
1.3693337933908032e-02 0.0000000000000000e+00 -6.3804832878600996e-03 
1.3693337933485176e-02 0.0000000000000000e+00 -6.3804832880843387e-03 
2.0420576960115327e-02 0.0000000000000000e+00 -7.8513637109514749e-03 
2.0420576959839912e-02 0.0000000000000000e+00 -7.8513637111713337e-03 
2.8179732081740450e-02 0.0000000000000000e+00 -9.3030700507705805e-03 
2.8179732081631478e-02 0.0000000000000000e+00 -9.3030700509094243e-03 
3.6796644556886381e-02 0.0000000000000000e+00 -1.0723420190177762e-02 
3.6796644556738381e-02 0.0000000000000000e+00 -1.0723420190216063e-02 
4.6089282542138267e-02 0.0000000000000000e+00 -1.2114520406949899e-02 
4.6089282541864583e-02 0.0000000000000000e+00 -1.2114520406913094e-02 
5.5921427248045191e-02 0.0000000000000000e+00 -1.3501570884458228e-02 
5.5921427247666161e-02 0.0000000000000000e+00 -1.3501570884380391e-02 
6.6225269906901585e-02 0.0000000000000000e+00 -1.4910333126486663e-02 
6.6225269906387441e-02 0.0000000000000000e+00 -1.4910333126406839e-02 
7.6962179087833427e-02 0.0000000000000000e+00 -1.6337682700990935e-02 
7.6962179087308222e-02 0.0000000000000000e+00 -1.6337682700969663e-02 
8.8073973661019572e-02 0.0000000000000000e+00 -1.7742577038586733e-02 
8.8073973660569307e-02 0.0000000000000000e+00 -1.7742577038650949e-02 
9.9445307365597743e-02 0.0000000000000000e+00 -1.9056972861711027e-02 
9.9445307365193192e-02 0.0000000000000000e+00 -1.9056972861875392e-02 
1.1089295915428672e-01 0.0000000000000000e+00 -2.0210243975115002e-02 
1.1089295915416114e-01 0.0000000000000000e+00 -2.0210243975368896e-02 
1.2218136957878112e-01 0.0000000000000000e+00 -2.1167932280750392e-02 
1.2218136957884740e-01 0.0000000000000000e+00 -2.1167932280985843e-02 
1.3311407941105782e-01 0.0000000000000000e+00 -2.1975402716821066e-02 
1.3311407941132058e-01 0.0000000000000000e+00 -2.1975402716941792e-02 
1.4364578294240879e-01 0.0000000000000000e+00 -2.2748642057092719e-02 
1.4364578294258964e-01 0.0000000000000000e+00 -2.2748642056980611e-02 
1.5390874321105283e-01 0.0000000000000000e+00 -2.3598073670193745e-02 
1.5390874321099177e-01 0.0000000000000000e+00 -2.3598073669798523e-02 
1.6408757685161829e-01 0.0000000000000000e+00 -2.4555982825991373e-02 
1.6408757685107322e-01 0.0000000000000000e+00 -2.4555982825339131e-02 
1.7533812881183475e-01 0.0000000000000000e+00 -1.5376294753554558e-02 
1.7428156614740314e-01 0.0000000000000000e+00 -2.5585795500287153e-02 
1.7533812881055788e-01 0.0000000000000000e+00 -1.5376294753318530e-02 
1.7428156614629092e-01 0.0000000000000000e+00 -2.5585795499482748e-02 
0.0000000000000000e+00 0.0000000000000000e+00 0.0000000000000000e+00 
1.4438230407872793e-03 0.0000000000000000e+00 1.8171025406029922e-03 
0.0000000000000000e+00 0.0000000000000000e+00 0.0000000000000000e+00 
1.4438230404614451e-03 0.0000000000000000e+00 1.8171025404561481e-03 
4.2845911104101107e-03 0.0000000000000000e+00 3.4885971380271765e-03 
4.2845911097376902e-03 0.0000000000000000e+00 3.4885971379296438e-03 
8.7475424069843270e-03 0.0000000000000000e+00 4.8451201104617661e-03 
8.7475424063768320e-03 0.0000000000000000e+00 4.8451201104589637e-03 
1.4573470372831462e-02 0.0000000000000000e+00 5.8970390133962864e-03 
1.4573470372421913e-02 0.0000000000000000e+00 5.8970390134321623e-03 
2.1596771781742838e-02 0.0000000000000000e+00 6.6344588365299826e-03 
2.1596771781560466e-02 0.0000000000000000e+00 6.6344588365259494e-03 
2.9647607328702804e-02 0.0000000000000000e+00 7.0520990065412528e-03 
2.9647607328592573e-02 0.0000000000000000e+00 7.0520990064484087e-03 
3.8526128249437415e-02 0.0000000000000000e+00 7.1616672868414092e-03 
3.8526128249287063e-02 0.0000000000000000e+00 7.1616672866909219e-03 
4.8051271172170104e-02 0.0000000000000000e+00 7.0052805663960854e-03 
4.8051271171879816e-02 0.0000000000000000e+00 7.0052805662499714e-03 
5.8090281809560856e-02 0.0000000000000000e+00 6.6423527698282357e-03 
5.8090281809158477e-02 0.0000000000000000e+00 6.6423527697270970e-03 
6.8580293573186277e-02 0.0000000000000000e+00 6.1122411039874177e-03 
6.8580293572683845e-02 0.0000000000000000e+00 6.1122411039538568e-03 
7.9473221793052648e-02 0.0000000000000000e+00 5.4192940472751559e-03 
7.9473221792532786e-02 0.0000000000000000e+00 5.4192940473048630e-03 
9.0698961029349476e-02 0.0000000000000000e+00 4.5402418554528817e-03 
9.0698961028908259e-02 0.0000000000000000e+00 4.5402418555253420e-03 
1.0211512622648640e-01 0.0000000000000000e+00 3.4555172002780038e-03 
1.0211512622619398e-01 0.0000000000000000e+00 3.4555172003735224e-03 
1.1352509286943512e-01 0.0000000000000000e+00 2.1746831323135726e-03 
1.1352509286938850e-01 0.0000000000000000e+00 2.1746831323902053e-03 
1.2470027418311788e-01 0.0000000000000000e+00 7.6610209996715430e-04 
1.2470027418330487e-01 0.0000000000000000e+00 7.6610209995902246e-04 
1.3548749053704143e-01 0.0000000000000000e+00 -6.4911613935652527e-04 
1.3548749053727890e-01 0.0000000000000000e+00 -6.4911613949124466e-04 
1.4589183744190939e-01 0.0000000000000000e+00 -1.9518330219632379e-03 
1.4589183744207712e-01 0.0000000000000000e+00 -1.9518330222581953e-03 
1.5607649384669306e-01 0.0000000000000000e+00 -3.1024618957846929e-03 
1.5607649384649575e-01 0.0000000000000000e+00 -3.1024618962071601e-03 
1.6621694344244900e-01 0.0000000000000000e+00 -4.1519063251887834e-03 
1.6621694344165663e-01 0.0000000000000000e+00 -4.1519063256539911e-03 
1.7639481696380793e-01 0.0000000000000000e+00 -5.1837802593836663e-03 
1.7639481696234968e-01 0.0000000000000000e+00 -5.1837802597872245e-03 

