# vtk DataFile Version 2.0

ASCII

DATASET UNSTRUCTURED_GRID

POINTS 86 float 

5.0000000000000003e-02  0.0000000000000000e+00  0.0000000000000000e+00
5.0000000000000003e-02  0.0000000000000000e+00  5.0000000000000003e-02
5.0000000000000003e-02  2.9999999999999999e-01  0.0000000000000000e+00
5.0000000000000003e-02  2.9999999999999999e-01  5.0000000000000003e-02
5.0000000000000003e-02  0.0000000000000000e+00  1.0000000000000001e-01
5.0000000000000003e-02  2.9999999999999999e-01  1.0000000000000001e-01
5.0000000000000003e-02  0.0000000000000000e+00  1.4999999999999999e-01
5.0000000000000003e-02  2.9999999999999999e-01  1.4999999999999999e-01
5.0000000000000003e-02  0.0000000000000000e+00  2.0000000000000001e-01
5.0000000000000003e-02  2.9999999999999999e-01  2.0000000000000001e-01
5.0000000000000003e-02  0.0000000000000000e+00  2.5000000000000000e-01
5.0000000000000003e-02  2.9999999999999999e-01  2.5000000000000000e-01
5.0000000000000003e-02  0.0000000000000000e+00  2.9999999999999999e-01
5.0000000000000003e-02  2.9999999999999999e-01  2.9999999999999999e-01
5.0000000000000003e-02  0.0000000000000000e+00  3.4999999999999998e-01
5.0000000000000003e-02  2.9999999999999999e-01  3.4999999999999998e-01
5.0000000000000003e-02  0.0000000000000000e+00  4.0000000000000002e-01
5.0000000000000003e-02  2.9999999999999999e-01  4.0000000000000002e-01
5.0000000000000003e-02  0.0000000000000000e+00  4.5000000000000001e-01
5.0000000000000003e-02  2.9999999999999999e-01  4.5000000000000001e-01
5.0000000000000003e-02  0.0000000000000000e+00  5.0000000000000000e-01
5.0000000000000003e-02  2.9999999999999999e-01  5.0000000000000000e-01
5.0000000000000003e-02  0.0000000000000000e+00  5.5000000000000004e-01
5.0000000000000003e-02  2.9999999999999999e-01  5.5000000000000004e-01
5.0000000000000003e-02  0.0000000000000000e+00  5.9999999999999998e-01
5.0000000000000003e-02  2.9999999999999999e-01  5.9999999999999998e-01
5.0000000000000003e-02  0.0000000000000000e+00  6.5000000000000002e-01
5.0000000000000003e-02  2.9999999999999999e-01  6.5000000000000002e-01
5.0000000000000003e-02  0.0000000000000000e+00  6.9999999999999996e-01
5.0000000000000003e-02  2.9999999999999999e-01  6.9999999999999996e-01
5.0000000000000003e-02  0.0000000000000000e+00  7.5000000000000000e-01
5.0000000000000003e-02  2.9999999999999999e-01  7.5000000000000000e-01
5.0000000000000003e-02  0.0000000000000000e+00  8.0000000000000004e-01
5.0000000000000003e-02  2.9999999999999999e-01  8.0000000000000004e-01
5.0000000000000003e-02  0.0000000000000000e+00  8.4999999999999998e-01
5.0000000000000003e-02  2.9999999999999999e-01  8.4999999999999998e-01
5.0000000000000003e-02  0.0000000000000000e+00  9.0000000000000002e-01
5.0000000000000003e-02  2.9999999999999999e-01  9.0000000000000002e-01
5.0000000000000003e-02  0.0000000000000000e+00  9.4999999999999996e-01
5.0000000000000003e-02  2.9999999999999999e-01  9.4999999999999996e-01
0.0000000000000000e+00  0.0000000000000000e+00  1.0000000000000000e+00
5.0000000000000003e-02  0.0000000000000000e+00  1.0000000000000000e+00
0.0000000000000000e+00  2.9999999999999999e-01  1.0000000000000000e+00
5.0000000000000003e-02  2.9999999999999999e-01  1.0000000000000000e+00
-5.0000000000000003e-02  0.0000000000000000e+00  0.0000000000000000e+00
-5.0000000000000003e-02  0.0000000000000000e+00  5.0000000000000003e-02
-5.0000000000000003e-02  2.9999999999999999e-01  0.0000000000000000e+00
-5.0000000000000003e-02  2.9999999999999999e-01  5.0000000000000003e-02
-5.0000000000000003e-02  0.0000000000000000e+00  1.0000000000000001e-01
-5.0000000000000003e-02  2.9999999999999999e-01  1.0000000000000001e-01
-5.0000000000000003e-02  0.0000000000000000e+00  1.4999999999999999e-01
-5.0000000000000003e-02  2.9999999999999999e-01  1.4999999999999999e-01
-5.0000000000000003e-02  0.0000000000000000e+00  2.0000000000000001e-01
-5.0000000000000003e-02  2.9999999999999999e-01  2.0000000000000001e-01
-5.0000000000000003e-02  0.0000000000000000e+00  2.5000000000000000e-01
-5.0000000000000003e-02  2.9999999999999999e-01  2.5000000000000000e-01
-5.0000000000000003e-02  0.0000000000000000e+00  2.9999999999999999e-01
-5.0000000000000003e-02  2.9999999999999999e-01  2.9999999999999999e-01
-5.0000000000000003e-02  0.0000000000000000e+00  3.4999999999999998e-01
-5.0000000000000003e-02  2.9999999999999999e-01  3.4999999999999998e-01
-5.0000000000000003e-02  0.0000000000000000e+00  4.0000000000000002e-01
-5.0000000000000003e-02  2.9999999999999999e-01  4.0000000000000002e-01
-5.0000000000000003e-02  0.0000000000000000e+00  4.5000000000000001e-01
-5.0000000000000003e-02  2.9999999999999999e-01  4.5000000000000001e-01
-5.0000000000000003e-02  0.0000000000000000e+00  5.0000000000000000e-01
-5.0000000000000003e-02  2.9999999999999999e-01  5.0000000000000000e-01
-5.0000000000000003e-02  0.0000000000000000e+00  5.5000000000000004e-01
-5.0000000000000003e-02  2.9999999999999999e-01  5.5000000000000004e-01
-5.0000000000000003e-02  0.0000000000000000e+00  5.9999999999999998e-01
-5.0000000000000003e-02  2.9999999999999999e-01  5.9999999999999998e-01
-5.0000000000000003e-02  0.0000000000000000e+00  6.5000000000000002e-01
-5.0000000000000003e-02  2.9999999999999999e-01  6.5000000000000002e-01
-5.0000000000000003e-02  0.0000000000000000e+00  6.9999999999999996e-01
-5.0000000000000003e-02  2.9999999999999999e-01  6.9999999999999996e-01
-5.0000000000000003e-02  0.0000000000000000e+00  7.5000000000000000e-01
-5.0000000000000003e-02  2.9999999999999999e-01  7.5000000000000000e-01
-5.0000000000000003e-02  0.0000000000000000e+00  8.0000000000000004e-01
-5.0000000000000003e-02  2.9999999999999999e-01  8.0000000000000004e-01
-5.0000000000000003e-02  0.0000000000000000e+00  8.4999999999999998e-01
-5.0000000000000003e-02  2.9999999999999999e-01  8.4999999999999998e-01
-5.0000000000000003e-02  0.0000000000000000e+00  9.0000000000000002e-01
-5.0000000000000003e-02  2.9999999999999999e-01  9.0000000000000002e-01
-5.0000000000000003e-02  0.0000000000000000e+00  9.4999999999999996e-01
-5.0000000000000003e-02  2.9999999999999999e-01  9.4999999999999996e-01
-5.0000000000000003e-02  0.0000000000000000e+00  1.0000000000000000e+00
-5.0000000000000003e-02  2.9999999999999999e-01  1.0000000000000000e+00

CELLS 0 0


CELL_TYPES 0


POINT_DATA 86

VECTORS VertexNormals float

0.0000000000000000e+00 0.0000000000000000e+00 0.0000000000000000e+00 
0.0000000000000000e+00 0.0000000000000000e+00 0.0000000000000000e+00 
0.0000000000000000e+00 0.0000000000000000e+00 0.0000000000000000e+00 
0.0000000000000000e+00 0.0000000000000000e+00 0.0000000000000000e+00 
0.0000000000000000e+00 0.0000000000000000e+00 0.0000000000000000e+00 
0.0000000000000000e+00 0.0000000000000000e+00 0.0000000000000000e+00 
0.0000000000000000e+00 0.0000000000000000e+00 0.0000000000000000e+00 
0.0000000000000000e+00 0.0000000000000000e+00 0.0000000000000000e+00 
0.0000000000000000e+00 0.0000000000000000e+00 0.0000000000000000e+00 
0.0000000000000000e+00 0.0000000000000000e+00 0.0000000000000000e+00 
0.0000000000000000e+00 0.0000000000000000e+00 0.0000000000000000e+00 
0.0000000000000000e+00 0.0000000000000000e+00 0.0000000000000000e+00 
0.0000000000000000e+00 0.0000000000000000e+00 0.0000000000000000e+00 
0.0000000000000000e+00 0.0000000000000000e+00 0.0000000000000000e+00 
0.0000000000000000e+00 0.0000000000000000e+00 0.0000000000000000e+00 
0.0000000000000000e+00 0.0000000000000000e+00 0.0000000000000000e+00 
0.0000000000000000e+00 0.0000000000000000e+00 0.0000000000000000e+00 
0.0000000000000000e+00 0.0000000000000000e+00 0.0000000000000000e+00 
0.0000000000000000e+00 0.0000000000000000e+00 0.0000000000000000e+00 
0.0000000000000000e+00 0.0000000000000000e+00 0.0000000000000000e+00 
0.0000000000000000e+00 0.0000000000000000e+00 0.0000000000000000e+00 
0.0000000000000000e+00 0.0000000000000000e+00 0.0000000000000000e+00 
0.0000000000000000e+00 0.0000000000000000e+00 0.0000000000000000e+00 
0.0000000000000000e+00 0.0000000000000000e+00 0.0000000000000000e+00 
0.0000000000000000e+00 0.0000000000000000e+00 0.0000000000000000e+00 
0.0000000000000000e+00 0.0000000000000000e+00 0.0000000000000000e+00 
0.0000000000000000e+00 0.0000000000000000e+00 0.0000000000000000e+00 
0.0000000000000000e+00 0.0000000000000000e+00 0.0000000000000000e+00 
0.0000000000000000e+00 0.0000000000000000e+00 0.0000000000000000e+00 
0.0000000000000000e+00 0.0000000000000000e+00 0.0000000000000000e+00 
0.0000000000000000e+00 0.0000000000000000e+00 0.0000000000000000e+00 
0.0000000000000000e+00 0.0000000000000000e+00 0.0000000000000000e+00 
0.0000000000000000e+00 0.0000000000000000e+00 0.0000000000000000e+00 
0.0000000000000000e+00 0.0000000000000000e+00 0.0000000000000000e+00 
0.0000000000000000e+00 0.0000000000000000e+00 0.0000000000000000e+00 
0.0000000000000000e+00 0.0000000000000000e+00 0.0000000000000000e+00 
0.0000000000000000e+00 0.0000000000000000e+00 0.0000000000000000e+00 
0.0000000000000000e+00 0.0000000000000000e+00 0.0000000000000000e+00 
0.0000000000000000e+00 0.0000000000000000e+00 0.0000000000000000e+00 
0.0000000000000000e+00 0.0000000000000000e+00 0.0000000000000000e+00 
0.0000000000000000e+00 0.0000000000000000e+00 0.0000000000000000e+00 
0.0000000000000000e+00 0.0000000000000000e+00 0.0000000000000000e+00 
0.0000000000000000e+00 0.0000000000000000e+00 0.0000000000000000e+00 
0.0000000000000000e+00 0.0000000000000000e+00 0.0000000000000000e+00 
0.0000000000000000e+00 0.0000000000000000e+00 0.0000000000000000e+00 
0.0000000000000000e+00 0.0000000000000000e+00 0.0000000000000000e+00 
0.0000000000000000e+00 0.0000000000000000e+00 0.0000000000000000e+00 
0.0000000000000000e+00 0.0000000000000000e+00 0.0000000000000000e+00 
0.0000000000000000e+00 0.0000000000000000e+00 0.0000000000000000e+00 
0.0000000000000000e+00 0.0000000000000000e+00 0.0000000000000000e+00 
0.0000000000000000e+00 0.0000000000000000e+00 0.0000000000000000e+00 
0.0000000000000000e+00 0.0000000000000000e+00 0.0000000000000000e+00 
0.0000000000000000e+00 0.0000000000000000e+00 0.0000000000000000e+00 
0.0000000000000000e+00 0.0000000000000000e+00 0.0000000000000000e+00 
0.0000000000000000e+00 0.0000000000000000e+00 0.0000000000000000e+00 
0.0000000000000000e+00 0.0000000000000000e+00 0.0000000000000000e+00 
0.0000000000000000e+00 0.0000000000000000e+00 0.0000000000000000e+00 
0.0000000000000000e+00 0.0000000000000000e+00 0.0000000000000000e+00 
0.0000000000000000e+00 0.0000000000000000e+00 0.0000000000000000e+00 
0.0000000000000000e+00 0.0000000000000000e+00 0.0000000000000000e+00 
0.0000000000000000e+00 0.0000000000000000e+00 0.0000000000000000e+00 
0.0000000000000000e+00 0.0000000000000000e+00 0.0000000000000000e+00 
0.0000000000000000e+00 0.0000000000000000e+00 0.0000000000000000e+00 
0.0000000000000000e+00 0.0000000000000000e+00 0.0000000000000000e+00 
0.0000000000000000e+00 0.0000000000000000e+00 0.0000000000000000e+00 
0.0000000000000000e+00 0.0000000000000000e+00 0.0000000000000000e+00 
0.0000000000000000e+00 0.0000000000000000e+00 0.0000000000000000e+00 
0.0000000000000000e+00 0.0000000000000000e+00 0.0000000000000000e+00 
0.0000000000000000e+00 0.0000000000000000e+00 0.0000000000000000e+00 
0.0000000000000000e+00 0.0000000000000000e+00 0.0000000000000000e+00 
0.0000000000000000e+00 0.0000000000000000e+00 0.0000000000000000e+00 
0.0000000000000000e+00 0.0000000000000000e+00 0.0000000000000000e+00 
0.0000000000000000e+00 0.0000000000000000e+00 0.0000000000000000e+00 
0.0000000000000000e+00 0.0000000000000000e+00 0.0000000000000000e+00 
0.0000000000000000e+00 0.0000000000000000e+00 0.0000000000000000e+00 
0.0000000000000000e+00 0.0000000000000000e+00 0.0000000000000000e+00 
0.0000000000000000e+00 0.0000000000000000e+00 0.0000000000000000e+00 
0.0000000000000000e+00 0.0000000000000000e+00 0.0000000000000000e+00 
0.0000000000000000e+00 0.0000000000000000e+00 0.0000000000000000e+00 
0.0000000000000000e+00 0.0000000000000000e+00 0.0000000000000000e+00 
0.0000000000000000e+00 0.0000000000000000e+00 0.0000000000000000e+00 
0.0000000000000000e+00 0.0000000000000000e+00 0.0000000000000000e+00 
0.0000000000000000e+00 0.0000000000000000e+00 0.0000000000000000e+00 
0.0000000000000000e+00 0.0000000000000000e+00 0.0000000000000000e+00 
0.0000000000000000e+00 0.0000000000000000e+00 0.0000000000000000e+00 
0.0000000000000000e+00 0.0000000000000000e+00 0.0000000000000000e+00 

VECTORS Forces0 float
2.3810463504208232e-01 0.0000000000000000e+00 3.1251576492833653e-03 
7.8208045293161199e-01 0.0000000000000000e+00 -2.5394233733699676e-02 
2.3810463520126487e-01 0.0000000000000000e+00 3.1251576819657676e-03 
7.8208045324823905e-01 0.0000000000000000e+00 -2.5394233766365692e-02 
7.5851419544081577e-01 0.0000000000000000e+00 -3.2247926437327795e-02 
7.5851419575841328e-01 0.0000000000000000e+00 -3.2247926470089616e-02 
6.8529585880853472e-01 0.0000000000000000e+00 -3.7418645747342348e-02 
6.8529585864946774e-01 0.0000000000000000e+00 -3.7418645791617175e-02 
6.9737919341237586e-01 0.0000000000000000e+00 -4.0407219870462988e-02 
6.9737919357149547e-01 0.0000000000000000e+00 -4.0407219914255325e-02 
6.9603619746720746e-01 0.0000000000000000e+00 -4.2040812076944573e-02 
6.9603619794403382e-01 0.0000000000000000e+00 -4.2040812101432484e-02 
8.0817923101981726e-01 0.0000000000000000e+00 -4.7293864574669116e-02 
8.0817923086002263e-01 0.0000000000000000e+00 -4.7293864542925813e-02 
7.2659571750414109e-01 0.0000000000000000e+00 -3.7869832991265943e-02 
7.2659571702674131e-01 0.0000000000000000e+00 -3.7869832892351386e-02 
7.4927949046570763e-01 0.0000000000000000e+00 -3.3962618157399628e-02 
7.4927948998916816e-01 0.0000000000000000e+00 -3.3962618180520883e-02 
7.5689839874416542e-01 0.0000000000000000e+00 -2.9033477909418411e-02 
7.5689839890304944e-01 0.0000000000000000e+00 -2.9033477964310429e-02 
8.9409615235069284e-01 0.0000000000000000e+00 -2.3567054373864960e-02 
8.9409615250996177e-01 0.0000000000000000e+00 -2.3567054319426035e-02 
8.0915134494294483e-01 0.0000000000000000e+00 -1.0864551053121471e-02 
8.0915134446687076e-01 0.0000000000000000e+00 -1.0864551042487697e-02 
8.3110281854068380e-01 0.0000000000000000e+00 -4.1244298879481462e-03 
8.3110281838049938e-01 0.0000000000000000e+00 -4.1244298768496395e-03 
8.3886501161058069e-01 0.0000000000000000e+00 2.5825422687997882e-03 
8.3886501240541733e-01 0.0000000000000000e+00 2.5825422246352593e-03 
9.7749325212354288e-01 0.0000000000000000e+00 1.2505300099535656e-02 
9.7749325244116303e-01 0.0000000000000000e+00 1.2505300165350015e-02 
8.5735971339809347e-01 0.0000000000000000e+00 1.5301509642750203e-02 
8.5735971419225987e-01 0.0000000000000000e+00 1.5301509554700516e-02 
8.5708798138130782e-01 0.0000000000000000e+00 1.7602053584258523e-02 
8.5708798154019417e-01 0.0000000000000000e+00 1.7602053562447886e-02 
8.4761058179425319e-01 0.0000000000000000e+00 2.0427399229632225e-02 
8.4761058195327965e-01 0.0000000000000000e+00 2.0427399262808243e-02 
9.3882539269454268e-01 0.0000000000000000e+00 2.3759276307631572e-02 
9.3882539253495367e-01 0.0000000000000000e+00 2.3759276362172871e-02 
8.7551115971867288e-01 0.0000000000000000e+00 4.3701555878167882e-02 
8.7551116003603713e-01 0.0000000000000000e+00 4.3701555877927949e-02 
-2.7305544671656808e-02 0.0000000000000000e+00 1.3960105889413572e+00 
2.9670610698160110e-01 0.0000000000000000e+00 3.5565547388224145e-01 
-2.7305544671231363e-02 0.0000000000000000e+00 1.3960105889302143e+00 
2.9670610682349979e-01 0.0000000000000000e+00 3.5565547384995300e-01 
2.9855343128624834e-01 0.0000000000000000e+00 2.5375354235126629e-03 
9.4010296283746320e-01 0.0000000000000000e+00 -3.0362191327953328e-02 
2.9855343287486735e-01 0.0000000000000000e+00 2.5375354355121060e-03 
9.4010296283803152e-01 0.0000000000000000e+00 -3.0362191349521641e-02 
9.1479435751361937e-01 0.0000000000000000e+00 -3.8669218489739650e-02 
9.1479435735495662e-01 0.0000000000000000e+00 -3.8669218510909271e-02 
8.0731791675458719e-01 0.0000000000000000e+00 -4.4280560650307388e-02 
8.0731791675447306e-01 0.0000000000000000e+00 -4.4280560628299034e-02 
8.0480904865848368e-01 0.0000000000000000e+00 -4.6862195427138993e-02 
8.0480904865859693e-01 0.0000000000000000e+00 -4.6862195449063213e-02 
7.9187635693792224e-01 0.0000000000000000e+00 -4.8165599513587599e-02 
7.9187635741495699e-01 0.0000000000000000e+00 -4.8165599556778065e-02 
8.9239207369486584e-01 0.0000000000000000e+00 -5.2708591823283621e-02 
8.9239207385431563e-01 0.0000000000000000e+00 -5.2708591812551893e-02 
7.6819893590722876e-01 0.0000000000000000e+00 -4.0612908727859845e-02 
7.6819893558952301e-01 0.0000000000000000e+00 -4.0612908749199719e-02 
7.6616579016331565e-01 0.0000000000000000e+00 -3.5434036759870065e-02 
7.6616579032202514e-01 0.0000000000000000e+00 -3.5434036749933846e-02 
7.4890401274991836e-01 0.0000000000000000e+00 -2.9326068383078215e-02 
7.4890401259068196e-01 0.0000000000000000e+00 -2.9326068406295484e-02 
8.3537128224704271e-01 0.0000000000000000e+00 -2.2563533665124397e-02 
8.3537128272412697e-01 0.0000000000000000e+00 -2.2563533708588247e-02 
7.1272979316607588e-01 0.0000000000000000e+00 -1.0069125504320622e-02 
7.1272979300784500e-01 0.0000000000000000e+00 -1.0069125493102030e-02 
7.0445844447178374e-01 0.0000000000000000e+00 -4.0434038348956640e-03 
7.0445844494789400e-01 0.0000000000000000e+00 -4.0434038351474895e-03 
6.7818383833067786e-01 0.0000000000000000e+00 1.8609285890865096e-03 
6.7818383833047546e-01 0.0000000000000000e+00 1.8609285785557510e-03 
7.3382075789298262e-01 0.0000000000000000e+00 9.4950932349285311e-03 
7.3382075789302659e-01 0.0000000000000000e+00 9.4950932131980231e-03 
5.9976037408431082e-01 0.0000000000000000e+00 1.0820969753398996e-02 
5.9976037408414751e-01 0.0000000000000000e+00 1.0820969764863872e-02 
5.6322495516635107e-01 0.0000000000000000e+00 1.1595092219473040e-02 
5.6322495548421647e-01 0.0000000000000000e+00 1.1595092230432005e-02 
5.0266692947579483e-01 0.0000000000000000e+00 1.2713198800857072e-02 
5.0266692947579528e-01 0.0000000000000000e+00 1.2713198789933646e-02 
4.5235298394473217e-01 0.0000000000000000e+00 6.6633261719644277e-03 
4.5235298394516044e-01 0.0000000000000000e+00 6.6633261717643378e-03 
1.9015751029446329e-01 0.0000000000000000e+00 2.7906811322686662e-02 
1.9015751061225805e-01 0.0000000000000000e+00 2.7906811333751856e-02 
2.4060837151526838e-02 0.0000000000000000e+00 5.3035309396736630e-01 
2.4060837151373051e-02 0.0000000000000000e+00 5.3035309396733099e-01 

VECTORS Displacements0 float
6.9356603532943773e-310 0.0000000000000000e+00 0.0000000000000000e+00 
1.0134008428006936e-03 0.0000000000000000e+00 -1.0582469933408307e-03 
0.0000000000000000e+00 0.0000000000000000e+00 0.0000000000000000e+00 
1.0134008426729887e-03 0.0000000000000000e+00 -1.0582469933394657e-03 
2.7746872883337935e-03 0.0000000000000000e+00 -1.8983597268442830e-03 
2.7746872882219368e-03 0.0000000000000000e+00 -1.8983597269178014e-03 
5.2619753791887085e-03 0.0000000000000000e+00 -2.4736169156194037e-03 
5.2619753792503979e-03 0.0000000000000000e+00 -2.4736169157954790e-03 
8.1934490851875239e-03 0.0000000000000000e+00 -2.8434499213925387e-03 
8.1934490854474584e-03 0.0000000000000000e+00 -2.8434499216364053e-03 
1.1366919535946679e-02 0.0000000000000000e+00 -3.0197674029273994e-03 
1.1366919536556887e-02 0.0000000000000000e+00 -3.0197674031608229e-03 
1.4579105404383456e-02 0.0000000000000000e+00 -3.0090250760438529e-03 
1.4579105405267148e-02 0.0000000000000000e+00 -3.0090250762303716e-03 
1.7645282934674267e-02 0.0000000000000000e+00 -2.8371433550625443e-03 
1.7645282935714379e-02 0.0000000000000000e+00 -2.8371433551648995e-03 
2.0423698886456787e-02 0.0000000000000000e+00 -2.5285762570062230e-03 
2.0423698887362618e-02 0.0000000000000000e+00 -2.5285762569250423e-03 
2.2799008148032551e-02 0.0000000000000000e+00 -2.1008190181425407e-03 
2.2799008148557252e-02 0.0000000000000000e+00 -2.1008190178736239e-03 
2.4686425136773174e-02 0.0000000000000000e+00 -1.5818087550028420e-03 
2.4686425136728023e-02 0.0000000000000000e+00 -1.5818087547119111e-03 
2.6024313921044494e-02 0.0000000000000000e+00 -1.0150316742569864e-03 
2.6024313920705724e-02 0.0000000000000000e+00 -1.0150316740926552e-03 
2.6797294219636558e-02 0.0000000000000000e+00 -4.5942804409537243e-04 
2.6797294219321741e-02 0.0000000000000000e+00 -4.5942804405080999e-04 
2.7094228988082780e-02 0.0000000000000000e+00 4.7950684735002538e-05 
2.7094228987892880e-02 0.0000000000000000e+00 4.7950684623470281e-05 
2.6989694280640464e-02 0.0000000000000000e+00 5.1084361110212482e-04 
2.6989694280815331e-02 0.0000000000000000e+00 5.1084361089631691e-04 
2.6509554355049963e-02 0.0000000000000000e+00 9.3479640983527693e-04 
2.6509554355731848e-02 0.0000000000000000e+00 9.3479640976726645e-04 
2.5710578052118151e-02 0.0000000000000000e+00 1.3277073546991340e-03 
2.5710578052760301e-02 0.0000000000000000e+00 1.3277073548942414e-03 
2.4605148554394298e-02 0.0000000000000000e+00 1.7174813158254752e-03 
2.4605148554681155e-02 0.0000000000000000e+00 1.7174813161663540e-03 
2.3104182662527905e-02 0.0000000000000000e+00 2.0896216402892702e-03 
2.3104182662468210e-02 0.0000000000000000e+00 2.0896216406383430e-03 
2.1213918925113300e-02 0.0000000000000000e+00 2.3394245371322598e-03 
2.1213918924686079e-02 0.0000000000000000e+00 2.3394245374854634e-03 
1.9241646728816938e-02 0.0000000000000000e+00 4.4117019122914949e-04 
1.9191917806095318e-02 0.0000000000000000e+00 2.4004941182969104e-03 
1.9241646727901483e-02 0.0000000000000000e+00 4.4117019109257563e-04 
1.9191917805113808e-02 0.0000000000000000e+00 2.4004941186749821e-03 
0.0000000000000000e+00 0.0000000000000000e+00 0.0000000000000000e+00 
1.0952405485176431e-03 0.0000000000000000e+00 1.1371428611022670e-03 
0.0000000000000000e+00 0.0000000000000000e+00 0.0000000000000000e+00 
1.0952405484740799e-03 0.0000000000000000e+00 1.1371428610914352e-03 
2.9168394484894093e-03 0.0000000000000000e+00 2.0338846857261609e-03 
2.9168394484390364e-03 0.0000000000000000e+00 2.0338846857928163e-03 
5.4550976191367010e-03 0.0000000000000000e+00 2.6260816030507206e-03 
5.4550976190895729e-03 0.0000000000000000e+00 2.6260816032175095e-03 
8.4208135540832455e-03 0.0000000000000000e+00 2.9673862925195926e-03 
8.4208135544012117e-03 0.0000000000000000e+00 2.9673862927427422e-03 
1.1612985763740775e-02 0.0000000000000000e+00 3.0853264562676957e-03 
1.1612985764419496e-02 0.0000000000000000e+00 3.0853264564864877e-03 
1.4816826117721759e-02 0.0000000000000000e+00 3.0101259297112279e-03 
1.4816826118601627e-02 0.0000000000000000e+00 3.0101259298361935e-03 
1.7850802429313650e-02 0.0000000000000000e+00 2.7843977090491641e-03 
1.7850802430345654e-02 0.0000000000000000e+00 2.7843977089822081e-03 
2.0595436218198489e-02 0.0000000000000000e+00 2.4465393379548986e-03 
2.0595436219113413e-02 0.0000000000000000e+00 2.4465393376925716e-03 
2.2936358047651845e-02 0.0000000000000000e+00 2.0301174008004212e-03 
2.2936358048188162e-02 0.0000000000000000e+00 2.0301174004157059e-03 
2.4790384905303491e-02 0.0000000000000000e+00 1.5683960929730081e-03 
2.4790384905312563e-02 0.0000000000000000e+00 1.5683960926498423e-03 
2.6100418057175435e-02 0.0000000000000000e+00 1.0982046323475807e-03 
2.6100418056957116e-02 0.0000000000000000e+00 1.0982046322257802e-03 
2.6860125990428210e-02 0.0000000000000000e+00 6.6705362174028764e-04 
2.6860125990155040e-02 0.0000000000000000e+00 6.6705362180196628e-04 
2.7151851106465476e-02 0.0000000000000000e+00 3.0001754836956376e-04 
2.7151851106257108e-02 0.0000000000000000e+00 3.0001754860422929e-04 
2.7045791946686135e-02 0.0000000000000000e+00 -1.7088259943175989e-05 
2.7045791946873465e-02 0.0000000000000000e+00 -1.7088259604780171e-05 
2.6570378028320789e-02 0.0000000000000000e+00 -3.0156829566743611e-04 
2.6570378028983137e-02 0.0000000000000000e+00 -3.0156829544819813e-04 
2.5777641304193619e-02 0.0000000000000000e+00 -5.7530608507028961e-04 
2.5777641304849070e-02 0.0000000000000000e+00 -5.7530608512916103e-04 
2.4673302562868878e-02 0.0000000000000000e+00 -8.7474763484247486e-04 
2.4673302563149844e-02 0.0000000000000000e+00 -8.7474763511023788e-04 
2.3183068873517919e-02 0.0000000000000000e+00 -1.1925225654539639e-03 
2.3183068873420063e-02 0.0000000000000000e+00 -1.1925225658091549e-03 
2.1299394569523223e-02 0.0000000000000000e+00 -1.4377201586803501e-03 
2.1299394569071591e-02 0.0000000000000000e+00 -1.4377201591361001e-03 
1.9270730607331941e-02 0.0000000000000000e+00 -1.5442258644673909e-03 
1.9270730606452558e-02 0.0000000000000000e+00 -1.5442258650012228e-03 

