# vtk DataFile Version 2.0

ASCII

DATASET UNSTRUCTURED_GRID

POINTS 86 float 

5.0000000000000003e-02  0.0000000000000000e+00  0.0000000000000000e+00
5.0000000000000003e-02  0.0000000000000000e+00  5.0000000000000003e-02
5.0000000000000003e-02  2.9999999999999999e-01  0.0000000000000000e+00
5.0000000000000003e-02  2.9999999999999999e-01  5.0000000000000003e-02
5.0000000000000003e-02  0.0000000000000000e+00  1.0000000000000001e-01
5.0000000000000003e-02  2.9999999999999999e-01  1.0000000000000001e-01
5.0000000000000003e-02  0.0000000000000000e+00  1.4999999999999999e-01
5.0000000000000003e-02  2.9999999999999999e-01  1.4999999999999999e-01
5.0000000000000003e-02  0.0000000000000000e+00  2.0000000000000001e-01
5.0000000000000003e-02  2.9999999999999999e-01  2.0000000000000001e-01
5.0000000000000003e-02  0.0000000000000000e+00  2.5000000000000000e-01
5.0000000000000003e-02  2.9999999999999999e-01  2.5000000000000000e-01
5.0000000000000003e-02  0.0000000000000000e+00  2.9999999999999999e-01
5.0000000000000003e-02  2.9999999999999999e-01  2.9999999999999999e-01
5.0000000000000003e-02  0.0000000000000000e+00  3.4999999999999998e-01
5.0000000000000003e-02  2.9999999999999999e-01  3.4999999999999998e-01
5.0000000000000003e-02  0.0000000000000000e+00  4.0000000000000002e-01
5.0000000000000003e-02  2.9999999999999999e-01  4.0000000000000002e-01
5.0000000000000003e-02  0.0000000000000000e+00  4.5000000000000001e-01
5.0000000000000003e-02  2.9999999999999999e-01  4.5000000000000001e-01
5.0000000000000003e-02  0.0000000000000000e+00  5.0000000000000000e-01
5.0000000000000003e-02  2.9999999999999999e-01  5.0000000000000000e-01
5.0000000000000003e-02  0.0000000000000000e+00  5.5000000000000004e-01
5.0000000000000003e-02  2.9999999999999999e-01  5.5000000000000004e-01
5.0000000000000003e-02  0.0000000000000000e+00  5.9999999999999998e-01
5.0000000000000003e-02  2.9999999999999999e-01  5.9999999999999998e-01
5.0000000000000003e-02  0.0000000000000000e+00  6.5000000000000002e-01
5.0000000000000003e-02  2.9999999999999999e-01  6.5000000000000002e-01
5.0000000000000003e-02  0.0000000000000000e+00  6.9999999999999996e-01
5.0000000000000003e-02  2.9999999999999999e-01  6.9999999999999996e-01
5.0000000000000003e-02  0.0000000000000000e+00  7.5000000000000000e-01
5.0000000000000003e-02  2.9999999999999999e-01  7.5000000000000000e-01
5.0000000000000003e-02  0.0000000000000000e+00  8.0000000000000004e-01
5.0000000000000003e-02  2.9999999999999999e-01  8.0000000000000004e-01
5.0000000000000003e-02  0.0000000000000000e+00  8.4999999999999998e-01
5.0000000000000003e-02  2.9999999999999999e-01  8.4999999999999998e-01
5.0000000000000003e-02  0.0000000000000000e+00  9.0000000000000002e-01
5.0000000000000003e-02  2.9999999999999999e-01  9.0000000000000002e-01
5.0000000000000003e-02  0.0000000000000000e+00  9.4999999999999996e-01
5.0000000000000003e-02  2.9999999999999999e-01  9.4999999999999996e-01
0.0000000000000000e+00  0.0000000000000000e+00  1.0000000000000000e+00
5.0000000000000003e-02  0.0000000000000000e+00  1.0000000000000000e+00
0.0000000000000000e+00  2.9999999999999999e-01  1.0000000000000000e+00
5.0000000000000003e-02  2.9999999999999999e-01  1.0000000000000000e+00
-5.0000000000000003e-02  0.0000000000000000e+00  0.0000000000000000e+00
-5.0000000000000003e-02  0.0000000000000000e+00  5.0000000000000003e-02
-5.0000000000000003e-02  2.9999999999999999e-01  0.0000000000000000e+00
-5.0000000000000003e-02  2.9999999999999999e-01  5.0000000000000003e-02
-5.0000000000000003e-02  0.0000000000000000e+00  1.0000000000000001e-01
-5.0000000000000003e-02  2.9999999999999999e-01  1.0000000000000001e-01
-5.0000000000000003e-02  0.0000000000000000e+00  1.4999999999999999e-01
-5.0000000000000003e-02  2.9999999999999999e-01  1.4999999999999999e-01
-5.0000000000000003e-02  0.0000000000000000e+00  2.0000000000000001e-01
-5.0000000000000003e-02  2.9999999999999999e-01  2.0000000000000001e-01
-5.0000000000000003e-02  0.0000000000000000e+00  2.5000000000000000e-01
-5.0000000000000003e-02  2.9999999999999999e-01  2.5000000000000000e-01
-5.0000000000000003e-02  0.0000000000000000e+00  2.9999999999999999e-01
-5.0000000000000003e-02  2.9999999999999999e-01  2.9999999999999999e-01
-5.0000000000000003e-02  0.0000000000000000e+00  3.4999999999999998e-01
-5.0000000000000003e-02  2.9999999999999999e-01  3.4999999999999998e-01
-5.0000000000000003e-02  0.0000000000000000e+00  4.0000000000000002e-01
-5.0000000000000003e-02  2.9999999999999999e-01  4.0000000000000002e-01
-5.0000000000000003e-02  0.0000000000000000e+00  4.5000000000000001e-01
-5.0000000000000003e-02  2.9999999999999999e-01  4.5000000000000001e-01
-5.0000000000000003e-02  0.0000000000000000e+00  5.0000000000000000e-01
-5.0000000000000003e-02  2.9999999999999999e-01  5.0000000000000000e-01
-5.0000000000000003e-02  0.0000000000000000e+00  5.5000000000000004e-01
-5.0000000000000003e-02  2.9999999999999999e-01  5.5000000000000004e-01
-5.0000000000000003e-02  0.0000000000000000e+00  5.9999999999999998e-01
-5.0000000000000003e-02  2.9999999999999999e-01  5.9999999999999998e-01
-5.0000000000000003e-02  0.0000000000000000e+00  6.5000000000000002e-01
-5.0000000000000003e-02  2.9999999999999999e-01  6.5000000000000002e-01
-5.0000000000000003e-02  0.0000000000000000e+00  6.9999999999999996e-01
-5.0000000000000003e-02  2.9999999999999999e-01  6.9999999999999996e-01
-5.0000000000000003e-02  0.0000000000000000e+00  7.5000000000000000e-01
-5.0000000000000003e-02  2.9999999999999999e-01  7.5000000000000000e-01
-5.0000000000000003e-02  0.0000000000000000e+00  8.0000000000000004e-01
-5.0000000000000003e-02  2.9999999999999999e-01  8.0000000000000004e-01
-5.0000000000000003e-02  0.0000000000000000e+00  8.4999999999999998e-01
-5.0000000000000003e-02  2.9999999999999999e-01  8.4999999999999998e-01
-5.0000000000000003e-02  0.0000000000000000e+00  9.0000000000000002e-01
-5.0000000000000003e-02  2.9999999999999999e-01  9.0000000000000002e-01
-5.0000000000000003e-02  0.0000000000000000e+00  9.4999999999999996e-01
-5.0000000000000003e-02  2.9999999999999999e-01  9.4999999999999996e-01
-5.0000000000000003e-02  0.0000000000000000e+00  1.0000000000000000e+00
-5.0000000000000003e-02  2.9999999999999999e-01  1.0000000000000000e+00

CELLS 0 0


CELL_TYPES 0


POINT_DATA 86

VECTORS VertexNormals float

0.0000000000000000e+00 0.0000000000000000e+00 0.0000000000000000e+00 
0.0000000000000000e+00 0.0000000000000000e+00 0.0000000000000000e+00 
0.0000000000000000e+00 0.0000000000000000e+00 0.0000000000000000e+00 
0.0000000000000000e+00 0.0000000000000000e+00 0.0000000000000000e+00 
0.0000000000000000e+00 0.0000000000000000e+00 0.0000000000000000e+00 
0.0000000000000000e+00 0.0000000000000000e+00 0.0000000000000000e+00 
0.0000000000000000e+00 0.0000000000000000e+00 0.0000000000000000e+00 
0.0000000000000000e+00 0.0000000000000000e+00 0.0000000000000000e+00 
0.0000000000000000e+00 0.0000000000000000e+00 0.0000000000000000e+00 
0.0000000000000000e+00 0.0000000000000000e+00 0.0000000000000000e+00 
0.0000000000000000e+00 0.0000000000000000e+00 0.0000000000000000e+00 
0.0000000000000000e+00 0.0000000000000000e+00 0.0000000000000000e+00 
0.0000000000000000e+00 0.0000000000000000e+00 0.0000000000000000e+00 
0.0000000000000000e+00 0.0000000000000000e+00 0.0000000000000000e+00 
0.0000000000000000e+00 0.0000000000000000e+00 0.0000000000000000e+00 
0.0000000000000000e+00 0.0000000000000000e+00 0.0000000000000000e+00 
0.0000000000000000e+00 0.0000000000000000e+00 0.0000000000000000e+00 
0.0000000000000000e+00 0.0000000000000000e+00 0.0000000000000000e+00 
0.0000000000000000e+00 0.0000000000000000e+00 0.0000000000000000e+00 
0.0000000000000000e+00 0.0000000000000000e+00 0.0000000000000000e+00 
0.0000000000000000e+00 0.0000000000000000e+00 0.0000000000000000e+00 
0.0000000000000000e+00 0.0000000000000000e+00 0.0000000000000000e+00 
0.0000000000000000e+00 0.0000000000000000e+00 0.0000000000000000e+00 
0.0000000000000000e+00 0.0000000000000000e+00 0.0000000000000000e+00 
0.0000000000000000e+00 0.0000000000000000e+00 0.0000000000000000e+00 
0.0000000000000000e+00 0.0000000000000000e+00 0.0000000000000000e+00 
0.0000000000000000e+00 0.0000000000000000e+00 0.0000000000000000e+00 
0.0000000000000000e+00 0.0000000000000000e+00 0.0000000000000000e+00 
0.0000000000000000e+00 0.0000000000000000e+00 0.0000000000000000e+00 
0.0000000000000000e+00 0.0000000000000000e+00 0.0000000000000000e+00 
0.0000000000000000e+00 0.0000000000000000e+00 0.0000000000000000e+00 
0.0000000000000000e+00 0.0000000000000000e+00 0.0000000000000000e+00 
0.0000000000000000e+00 0.0000000000000000e+00 0.0000000000000000e+00 
0.0000000000000000e+00 0.0000000000000000e+00 0.0000000000000000e+00 
0.0000000000000000e+00 0.0000000000000000e+00 0.0000000000000000e+00 
0.0000000000000000e+00 0.0000000000000000e+00 0.0000000000000000e+00 
0.0000000000000000e+00 0.0000000000000000e+00 0.0000000000000000e+00 
0.0000000000000000e+00 0.0000000000000000e+00 0.0000000000000000e+00 
0.0000000000000000e+00 0.0000000000000000e+00 0.0000000000000000e+00 
0.0000000000000000e+00 0.0000000000000000e+00 0.0000000000000000e+00 
0.0000000000000000e+00 0.0000000000000000e+00 0.0000000000000000e+00 
0.0000000000000000e+00 0.0000000000000000e+00 0.0000000000000000e+00 
0.0000000000000000e+00 0.0000000000000000e+00 0.0000000000000000e+00 
0.0000000000000000e+00 0.0000000000000000e+00 0.0000000000000000e+00 
0.0000000000000000e+00 0.0000000000000000e+00 0.0000000000000000e+00 
0.0000000000000000e+00 0.0000000000000000e+00 0.0000000000000000e+00 
0.0000000000000000e+00 0.0000000000000000e+00 0.0000000000000000e+00 
0.0000000000000000e+00 0.0000000000000000e+00 0.0000000000000000e+00 
0.0000000000000000e+00 0.0000000000000000e+00 0.0000000000000000e+00 
0.0000000000000000e+00 0.0000000000000000e+00 0.0000000000000000e+00 
0.0000000000000000e+00 0.0000000000000000e+00 0.0000000000000000e+00 
0.0000000000000000e+00 0.0000000000000000e+00 0.0000000000000000e+00 
0.0000000000000000e+00 0.0000000000000000e+00 0.0000000000000000e+00 
0.0000000000000000e+00 0.0000000000000000e+00 0.0000000000000000e+00 
0.0000000000000000e+00 0.0000000000000000e+00 0.0000000000000000e+00 
0.0000000000000000e+00 0.0000000000000000e+00 0.0000000000000000e+00 
0.0000000000000000e+00 0.0000000000000000e+00 0.0000000000000000e+00 
0.0000000000000000e+00 0.0000000000000000e+00 0.0000000000000000e+00 
0.0000000000000000e+00 0.0000000000000000e+00 0.0000000000000000e+00 
0.0000000000000000e+00 0.0000000000000000e+00 0.0000000000000000e+00 
0.0000000000000000e+00 0.0000000000000000e+00 0.0000000000000000e+00 
0.0000000000000000e+00 0.0000000000000000e+00 0.0000000000000000e+00 
0.0000000000000000e+00 0.0000000000000000e+00 0.0000000000000000e+00 
0.0000000000000000e+00 0.0000000000000000e+00 0.0000000000000000e+00 
0.0000000000000000e+00 0.0000000000000000e+00 0.0000000000000000e+00 
0.0000000000000000e+00 0.0000000000000000e+00 0.0000000000000000e+00 
0.0000000000000000e+00 0.0000000000000000e+00 0.0000000000000000e+00 
0.0000000000000000e+00 0.0000000000000000e+00 0.0000000000000000e+00 
0.0000000000000000e+00 0.0000000000000000e+00 0.0000000000000000e+00 
0.0000000000000000e+00 0.0000000000000000e+00 0.0000000000000000e+00 
0.0000000000000000e+00 0.0000000000000000e+00 0.0000000000000000e+00 
0.0000000000000000e+00 0.0000000000000000e+00 0.0000000000000000e+00 
0.0000000000000000e+00 0.0000000000000000e+00 0.0000000000000000e+00 
0.0000000000000000e+00 0.0000000000000000e+00 0.0000000000000000e+00 
0.0000000000000000e+00 0.0000000000000000e+00 0.0000000000000000e+00 
0.0000000000000000e+00 0.0000000000000000e+00 0.0000000000000000e+00 
0.0000000000000000e+00 0.0000000000000000e+00 0.0000000000000000e+00 
0.0000000000000000e+00 0.0000000000000000e+00 0.0000000000000000e+00 
0.0000000000000000e+00 0.0000000000000000e+00 0.0000000000000000e+00 
0.0000000000000000e+00 0.0000000000000000e+00 0.0000000000000000e+00 
0.0000000000000000e+00 0.0000000000000000e+00 0.0000000000000000e+00 
0.0000000000000000e+00 0.0000000000000000e+00 0.0000000000000000e+00 
0.0000000000000000e+00 0.0000000000000000e+00 0.0000000000000000e+00 
0.0000000000000000e+00 0.0000000000000000e+00 0.0000000000000000e+00 
0.0000000000000000e+00 0.0000000000000000e+00 0.0000000000000000e+00 
0.0000000000000000e+00 0.0000000000000000e+00 0.0000000000000000e+00 

VECTORS Forces0 float
-2.3394359519094560e-01 0.0000000000000000e+00 6.3732651690581663e-03 
-4.9807373716845094e-01 0.0000000000000000e+00 1.9964176175971297e-02 
-2.3394359496706277e-01 0.0000000000000000e+00 6.3732652815957479e-03 
-4.9807373739118499e-01 0.0000000000000000e+00 1.9964176264903804e-02 
-5.7349593377326447e-01 0.0000000000000000e+00 5.0613537264322724e-02 
-5.7349593392000719e-01 0.0000000000000000e+00 5.0613537106542983e-02 
-4.8392042731170393e-01 0.0000000000000000e+00 6.7640024764326720e-02 
-4.8392042738368135e-01 0.0000000000000000e+00 6.7640024945684704e-02 
-4.6542773889963546e-01 0.0000000000000000e+00 8.0183271721651031e-02 
-4.6542773912341723e-01 0.0000000000000000e+00 8.0183271631317526e-02 
-4.8143790015127785e-01 0.0000000000000000e+00 9.8332393697913689e-02 
-4.8143789978449802e-01 0.0000000000000000e+00 9.8332393697854764e-02 
-5.7022052323934191e-01 0.0000000000000000e+00 1.4218411288113605e-01 
-5.7022052316623661e-01 0.0000000000000000e+00 1.4218411285817686e-01 
-4.7118510879169007e-01 0.0000000000000000e+00 1.3721459121067678e-01 
-4.7118510901367477e-01 0.0000000000000000e+00 1.3721459125579638e-01 
-4.5042892225713244e-01 0.0000000000000000e+00 1.4273679716940904e-01 
-4.5042892240492571e-01 0.0000000000000000e+00 1.4273679730406411e-01 
-4.6012161241397065e-01 0.0000000000000000e+00 1.5753089544694143e-01 
-4.6012161226660825e-01 0.0000000000000000e+00 1.5753089544697763e-01 
-5.3433102462907411e-01 0.0000000000000000e+00 2.0144825753556211e-01 
-5.3433102440568869e-01 0.0000000000000000e+00 2.0144825749063594e-01 
-4.3480312612730537e-01 0.0000000000000000e+00 1.7705980088978826e-01 
-4.3480312642431496e-01 0.0000000000000000e+00 1.7705980088997175e-01 
-4.1094492803078003e-01 0.0000000000000000e+00 1.7486878826812591e-01 
-4.1094492758654960e-01 0.0000000000000000e+00 1.7486878829188915e-01 
-4.1307141463283759e-01 0.0000000000000000e+00 1.8327290107978600e-01 
-4.1307141463286462e-01 0.0000000000000000e+00 1.8327290107948219e-01 
-4.6879987605551177e-01 0.0000000000000000e+00 2.1950025238902790e-01 
-4.6879987620666735e-01 0.0000000000000000e+00 2.1950025232020609e-01 
-3.7516854147213730e-01 0.0000000000000000e+00 1.8228434094803123e-01 
-3.7516854147113943e-01 0.0000000000000000e+00 1.8228434097054019e-01 
-3.5205415002078549e-01 0.0000000000000000e+00 1.7310356877411923e-01 
-3.5205414979441835e-01 0.0000000000000000e+00 1.7310356866154600e-01 
-3.5129327103465424e-01 0.0000000000000000e+00 1.7417192932571748e-01 
-3.5129327081341838e-01 0.0000000000000000e+00 1.7417192932554834e-01 
-3.8919469033043030e-01 0.0000000000000000e+00 1.9464933895576855e-01 
-3.8919469033020410e-01 0.0000000000000000e+00 1.9464933897797723e-01 
-3.4389005123318389e-01 0.0000000000000000e+00 1.6425379342249594e-01 
-3.4389005138497936e-01 0.0000000000000000e+00 1.6425379335462972e-01 
-3.8806863651365903e-02 0.0000000000000000e+00 -8.2980574441691851e-02 
-1.7812204537559531e-01 0.0000000000000000e+00 -1.3471009076844124e-02 
-3.8806863358751532e-02 0.0000000000000000e+00 -8.2980574554659306e-02 
-1.7812204552449440e-01 0.0000000000000000e+00 -1.3471009098620979e-02 
5.2293333336795711e-01 0.0000000000000000e+00 -2.0008285658447381e-02 
1.4474670719390899e+00 0.0000000000000000e+00 -5.2937193006847079e-02 
5.2293333366440931e-01 0.0000000000000000e+00 -2.0008285613240830e-02 
1.4474670721605611e+00 0.0000000000000000e+00 -5.2937193029399261e-02 
1.4862664121957718e+00 0.0000000000000000e+00 -1.3060246529957054e-01 
1.4862664123437992e+00 0.0000000000000000e+00 -1.3060246532280770e-01 
1.2910174344523262e+00 0.0000000000000000e+00 -1.7723497025524057e-01 
1.2910174344533347e+00 0.0000000000000000e+00 -1.7723497025503054e-01 
1.2646274735224057e+00 0.0000000000000000e+00 -2.1544201971430649e-01 
1.2646274735974690e+00 0.0000000000000000e+00 -2.1544201971597060e-01 
1.2587889462521247e+00 0.0000000000000000e+00 -2.5582700564222183e-01 
1.2587889466219409e+00 0.0000000000000000e+00 -2.5582700566427397e-01 
1.4241335015607719e+00 0.0000000000000000e+00 -3.5248664337138708e-01 
1.4241335014121652e+00 0.0000000000000000e+00 -3.5248664330399154e-01 
1.1838293085280143e+00 0.0000000000000000e+00 -3.4088854664682583e-01 
1.1838293083081046e+00 0.0000000000000000e+00 -3.4088854662445284e-01 
1.1426745451245823e+00 0.0000000000000000e+00 -3.5837082105070767e-01 
1.1426745449011879e+00 0.0000000000000000e+00 -3.5837082102826245e-01 
1.1176605539405358e+00 0.0000000000000000e+00 -3.7991377555899286e-01 
1.1176605539406426e+00 0.0000000000000000e+00 -3.7991377553695382e-01 
1.2390708625920559e+00 0.0000000000000000e+00 -4.6305749937428159e-01 
1.2390708623685938e+00 0.0000000000000000e+00 -4.6305749944173258e-01 
1.0140937245857036e+00 0.0000000000000000e+00 -4.0830685259498856e-01 
1.0140937244381543e+00 0.0000000000000000e+00 -4.0830685254989996e-01 
9.7019688472276366e-01 0.0000000000000000e+00 -4.0814821283272390e-01 
9.7019688479725097e-01 0.0000000000000000e+00 -4.0814821280995683e-01 
9.4126915792912513e-01 0.0000000000000000e+00 -4.1335464430744456e-01 
9.4126915800338984e-01 0.0000000000000000e+00 -4.1335464433021557e-01 
1.0314444934224696e+00 0.0000000000000000e+00 -4.7732849458946031e-01 
1.0314444933484788e+00 0.0000000000000000e+00 -4.7732849458939347e-01 
8.3117329190023193e-01 0.0000000000000000e+00 -3.9829748147357985e-01 
8.3117329190015288e-01 0.0000000000000000e+00 -3.9829748140617821e-01 
7.8460920641889120e-01 0.0000000000000000e+00 -3.7987735827040775e-01 
7.8460920641933818e-01 0.0000000000000000e+00 -3.7987735827038233e-01 
7.5097086434844862e-01 0.0000000000000000e+00 -3.6690295181953969e-01 
7.5097086427304804e-01 0.0000000000000000e+00 -3.6690295184202826e-01 
7.9123108777791440e-01 0.0000000000000000e+00 -3.8515571317468744e-01 
7.9123108785187690e-01 0.0000000000000000e+00 -3.8515571317466762e-01 
6.3785049154493167e-01 0.0000000000000000e+00 -3.1096098159907570e-01 
6.3785049139695760e-01 0.0000000000000000e+00 -3.1096098164403718e-01 
2.6359371830800915e-01 0.0000000000000000e+00 -7.5429502385492078e-02 
2.6359371830800354e-01 0.0000000000000000e+00 -7.5429502385563355e-02 

VECTORS Displacements0 float
6.9356603593235591e-310 0.0000000000000000e+00 0.0000000000000000e+00 
1.3808320106082786e-03 0.0000000000000000e+00 -2.1703658902560955e-03 
0.0000000000000000e+00 0.0000000000000000e+00 0.0000000000000000e+00 
1.3808320107267294e-03 0.0000000000000000e+00 -2.1703658902955912e-03 
4.5026986771632234e-03 0.0000000000000000e+00 -4.4912353033121789e-03 
4.5026986773380757e-03 0.0000000000000000e+00 -4.4912353032910361e-03 
9.7509272871453435e-03 0.0000000000000000e+00 -6.8900212029122743e-03 
9.7509272872509881e-03 0.0000000000000000e+00 -6.8900212027672419e-03 
1.6983539528503292e-02 0.0000000000000000e+00 -9.4807559564653796e-03 
1.6983539528438500e-02 0.0000000000000000e+00 -9.4807559562191182e-03 
2.6161580919932103e-02 0.0000000000000000e+00 -1.2308380481038885e-02 
2.6161580919680311e-02 0.0000000000000000e+00 -1.2308380480724978e-02 
3.7183245648167773e-02 0.0000000000000000e+00 -1.5395141774415519e-02 
3.7183245647782165e-02 0.0000000000000000e+00 -1.5395141774101274e-02 
4.9914312154516076e-02 0.0000000000000000e+00 -1.8752608168225111e-02 
4.9914312154011868e-02 0.0000000000000000e+00 -1.8752608167944322e-02 
6.4191621785949463e-02 0.0000000000000000e+00 -2.2390446791921953e-02 
6.4191621785415071e-02 0.0000000000000000e+00 -2.2390446791697289e-02 
7.9867025606082942e-02 0.0000000000000000e+00 -2.6320854567144013e-02 
7.9867025605595457e-02 0.0000000000000000e+00 -2.6320854567023683e-02 
9.6810256872551861e-02 0.0000000000000000e+00 -3.0546196096374309e-02 
9.6810256872144146e-02 0.0000000000000000e+00 -3.0546196096387611e-02 
1.1489892097621703e-01 0.0000000000000000e+00 -3.5050258348989456e-02 
1.1489892097592122e-01 0.0000000000000000e+00 -3.5050258349134271e-02 
1.3398322890620498e-01 0.0000000000000000e+00 -3.9796093482467841e-02 
1.3398322890609371e-01 0.0000000000000000e+00 -3.9796093482699663e-02 
1.5390840960385310e-01 0.0000000000000000e+00 -4.4750123508184844e-02 
1.5390840960382593e-01 0.0000000000000000e+00 -4.4750123508447856e-02 
1.7454292220477416e-01 0.0000000000000000e+00 -4.9889575592610480e-02 
1.7454292220482287e-01 0.0000000000000000e+00 -4.9889575592866373e-02 
1.9579255543191151e-01 0.0000000000000000e+00 -5.5185710044015852e-02 
1.9579255543197330e-01 0.0000000000000000e+00 -5.5185710044175051e-02 
2.1754856459073210e-01 0.0000000000000000e+00 -6.0573796721154378e-02 
2.1754856459062605e-01 0.0000000000000000e+00 -6.0573796721150673e-02 
2.3966202085370364e-01 0.0000000000000000e+00 -6.5970968144651532e-02 
2.3966202085334234e-01 0.0000000000000000e+00 -6.5970968144520484e-02 
2.6196007547898542e-01 0.0000000000000000e+00 -7.1318188497575999e-02 
2.6196007547840489e-01 0.0000000000000000e+00 -7.1318188497460314e-02 
2.8431075457482069e-01 0.0000000000000000e+00 -7.6610420156002834e-02 
2.8431075457423649e-01 0.0000000000000000e+00 -7.6610420156056333e-02 
3.1191857057742028e-01 0.0000000000000000e+00 -5.9550210487085489e-02 
3.0665065998999197e-01 0.0000000000000000e+00 -8.1876428530793369e-02 
3.1191857057706807e-01 0.0000000000000000e+00 -5.9550210487117200e-02 
3.0665065998955710e-01 0.0000000000000000e+00 -8.1876428530996012e-02 
0.0000000000000000e+00 0.0000000000000000e+00 0.0000000000000000e+00 
1.5556548039374924e-03 0.0000000000000000e+00 2.1182348296990851e-03 
0.0000000000000000e+00 0.0000000000000000e+00 0.0000000000000000e+00 
1.5556548040778311e-03 0.0000000000000000e+00 2.1182348297041692e-03 
4.9784347374564140e-03 0.0000000000000000e+00 4.1962832544144794e-03 
4.9784347376559315e-03 0.0000000000000000e+00 4.1962832543644257e-03 
1.0675815695263444e-02 0.0000000000000000e+00 5.9970764634528512e-03 
1.0675815695344116e-02 0.0000000000000000e+00 5.9970764633601424e-03 
1.8523859036636354e-02 0.0000000000000000e+00 7.4606875754348531e-03 
1.8523859036556675e-02 0.0000000000000000e+00 7.4606875753418815e-03 
2.8445559386430293e-02 0.0000000000000000e+00 8.4828776074388230e-03 
2.8445559386121557e-02 0.0000000000000000e+00 8.4828776074080681e-03 
4.0305154824316444e-02 0.0000000000000000e+00 8.9758412081421008e-03 
4.0305154823863799e-02 0.0000000000000000e+00 8.9758412081958339e-03 
5.3913354222330352e-02 0.0000000000000000e+00 8.8867303352576262e-03 
5.3913354221810664e-02 0.0000000000000000e+00 8.8867303353943067e-03 
6.9088934158823098e-02 0.0000000000000000e+00 8.1961851712694447e-03 
6.9088934158286236e-02 0.0000000000000000e+00 8.1961851714869756e-03 
8.5656718700729467e-02 0.0000000000000000e+00 6.9109794313261044e-03 
8.5656718700261703e-02 0.0000000000000000e+00 6.9109794315863832e-03 
1.0346755961199010e-01 0.0000000000000000e+00 5.0409331936612988e-03 
1.0346755961160910e-01 0.0000000000000000e+00 5.0409331939086062e-03 
1.2236043063158121e-01 0.0000000000000000e+00 2.6022424583776534e-03 
1.2236043063137782e-01 0.0000000000000000e+00 2.6022424585252072e-03 
1.4217561116335484e-01 0.0000000000000000e+00 -3.7837296356813238e-04 
1.4217561116328944e-01 0.0000000000000000e+00 -3.7837296355795465e-04 
1.6274545021401665e-01 0.0000000000000000e+00 -3.8459253185626438e-03 
1.6274545021402631e-01 0.0000000000000000e+00 -3.8459253186897469e-03 
1.8394158098016861e-01 0.0000000000000000e+00 -7.7438213948788212e-03 
1.8394158098019511e-01 0.0000000000000000e+00 -7.7438213951402449e-03 
2.0565153147039633e-01 0.0000000000000000e+00 -1.2030269024722057e-02 
2.0565153147033133e-01 0.0000000000000000e+00 -1.2030269025077102e-02 
2.2775521914757335e-01 0.0000000000000000e+00 -1.6676104146418826e-02 
2.2775521914731600e-01 0.0000000000000000e+00 -1.6676104146777899e-02 
2.5008360249907735e-01 0.0000000000000000e+00 -2.1617116727553242e-02 
2.5008360249858064e-01 0.0000000000000000e+00 -2.1617116727768400e-02 
2.7247993116270319e-01 0.0000000000000000e+00 -2.6752566780331805e-02 
2.7247993116209596e-01 0.0000000000000000e+00 -2.6752566780325376e-02 
2.9485057420176691e-01 0.0000000000000000e+00 -3.1977161119858030e-02 
2.9485057420128874e-01 0.0000000000000000e+00 -3.1977161119730139e-02 
3.1718722411440153e-01 0.0000000000000000e+00 -3.7227714673505177e-02 
3.1718722411412453e-01 0.0000000000000000e+00 -3.7227714673398089e-02 

