# vtk DataFile Version 2.0

ASCII

DATASET UNSTRUCTURED_GRID

POINTS 86 double 

5.0000000000000003e-02  0.0000000000000000e+00  0.0000000000000000e+00
5.0000000000000003e-02  0.0000000000000000e+00  5.0000000000000003e-02
5.0000000000000003e-02  2.9999999999999999e-01  0.0000000000000000e+00
5.0000000000000003e-02  2.9999999999999999e-01  5.0000000000000003e-02
5.0000000000000003e-02  0.0000000000000000e+00  1.0000000000000001e-01
5.0000000000000003e-02  2.9999999999999999e-01  1.0000000000000001e-01
5.0000000000000003e-02  0.0000000000000000e+00  1.4999999999999999e-01
5.0000000000000003e-02  2.9999999999999999e-01  1.4999999999999999e-01
5.0000000000000003e-02  0.0000000000000000e+00  2.0000000000000001e-01
5.0000000000000003e-02  2.9999999999999999e-01  2.0000000000000001e-01
5.0000000000000003e-02  0.0000000000000000e+00  2.5000000000000000e-01
5.0000000000000003e-02  2.9999999999999999e-01  2.5000000000000000e-01
5.0000000000000003e-02  0.0000000000000000e+00  2.9999999999999999e-01
5.0000000000000003e-02  2.9999999999999999e-01  2.9999999999999999e-01
5.0000000000000003e-02  0.0000000000000000e+00  3.4999999999999998e-01
5.0000000000000003e-02  2.9999999999999999e-01  3.4999999999999998e-01
5.0000000000000003e-02  0.0000000000000000e+00  4.0000000000000002e-01
5.0000000000000003e-02  2.9999999999999999e-01  4.0000000000000002e-01
5.0000000000000003e-02  0.0000000000000000e+00  4.5000000000000001e-01
5.0000000000000003e-02  2.9999999999999999e-01  4.5000000000000001e-01
5.0000000000000003e-02  0.0000000000000000e+00  5.0000000000000000e-01
5.0000000000000003e-02  2.9999999999999999e-01  5.0000000000000000e-01
5.0000000000000003e-02  0.0000000000000000e+00  5.5000000000000004e-01
5.0000000000000003e-02  2.9999999999999999e-01  5.5000000000000004e-01
5.0000000000000003e-02  0.0000000000000000e+00  5.9999999999999998e-01
5.0000000000000003e-02  2.9999999999999999e-01  5.9999999999999998e-01
5.0000000000000003e-02  0.0000000000000000e+00  6.5000000000000002e-01
5.0000000000000003e-02  2.9999999999999999e-01  6.5000000000000002e-01
5.0000000000000003e-02  0.0000000000000000e+00  6.9999999999999996e-01
5.0000000000000003e-02  2.9999999999999999e-01  6.9999999999999996e-01
5.0000000000000003e-02  0.0000000000000000e+00  7.5000000000000000e-01
5.0000000000000003e-02  2.9999999999999999e-01  7.5000000000000000e-01
5.0000000000000003e-02  0.0000000000000000e+00  8.0000000000000004e-01
5.0000000000000003e-02  2.9999999999999999e-01  8.0000000000000004e-01
5.0000000000000003e-02  0.0000000000000000e+00  8.4999999999999998e-01
5.0000000000000003e-02  2.9999999999999999e-01  8.4999999999999998e-01
5.0000000000000003e-02  0.0000000000000000e+00  9.0000000000000002e-01
5.0000000000000003e-02  2.9999999999999999e-01  9.0000000000000002e-01
5.0000000000000003e-02  0.0000000000000000e+00  9.4999999999999996e-01
5.0000000000000003e-02  2.9999999999999999e-01  9.4999999999999996e-01
0.0000000000000000e+00  0.0000000000000000e+00  1.0000000000000000e+00
5.0000000000000003e-02  0.0000000000000000e+00  1.0000000000000000e+00
0.0000000000000000e+00  2.9999999999999999e-01  1.0000000000000000e+00
5.0000000000000003e-02  2.9999999999999999e-01  1.0000000000000000e+00
-5.0000000000000003e-02  0.0000000000000000e+00  0.0000000000000000e+00
-5.0000000000000003e-02  0.0000000000000000e+00  5.0000000000000003e-02
-5.0000000000000003e-02  2.9999999999999999e-01  0.0000000000000000e+00
-5.0000000000000003e-02  2.9999999999999999e-01  5.0000000000000003e-02
-5.0000000000000003e-02  0.0000000000000000e+00  1.0000000000000001e-01
-5.0000000000000003e-02  2.9999999999999999e-01  1.0000000000000001e-01
-5.0000000000000003e-02  0.0000000000000000e+00  1.4999999999999999e-01
-5.0000000000000003e-02  2.9999999999999999e-01  1.4999999999999999e-01
-5.0000000000000003e-02  0.0000000000000000e+00  2.0000000000000001e-01
-5.0000000000000003e-02  2.9999999999999999e-01  2.0000000000000001e-01
-5.0000000000000003e-02  0.0000000000000000e+00  2.5000000000000000e-01
-5.0000000000000003e-02  2.9999999999999999e-01  2.5000000000000000e-01
-5.0000000000000003e-02  0.0000000000000000e+00  2.9999999999999999e-01
-5.0000000000000003e-02  2.9999999999999999e-01  2.9999999999999999e-01
-5.0000000000000003e-02  0.0000000000000000e+00  3.4999999999999998e-01
-5.0000000000000003e-02  2.9999999999999999e-01  3.4999999999999998e-01
-5.0000000000000003e-02  0.0000000000000000e+00  4.0000000000000002e-01
-5.0000000000000003e-02  2.9999999999999999e-01  4.0000000000000002e-01
-5.0000000000000003e-02  0.0000000000000000e+00  4.5000000000000001e-01
-5.0000000000000003e-02  2.9999999999999999e-01  4.5000000000000001e-01
-5.0000000000000003e-02  0.0000000000000000e+00  5.0000000000000000e-01
-5.0000000000000003e-02  2.9999999999999999e-01  5.0000000000000000e-01
-5.0000000000000003e-02  0.0000000000000000e+00  5.5000000000000004e-01
-5.0000000000000003e-02  2.9999999999999999e-01  5.5000000000000004e-01
-5.0000000000000003e-02  0.0000000000000000e+00  5.9999999999999998e-01
-5.0000000000000003e-02  2.9999999999999999e-01  5.9999999999999998e-01
-5.0000000000000003e-02  0.0000000000000000e+00  6.5000000000000002e-01
-5.0000000000000003e-02  2.9999999999999999e-01  6.5000000000000002e-01
-5.0000000000000003e-02  0.0000000000000000e+00  6.9999999999999996e-01
-5.0000000000000003e-02  2.9999999999999999e-01  6.9999999999999996e-01
-5.0000000000000003e-02  0.0000000000000000e+00  7.5000000000000000e-01
-5.0000000000000003e-02  2.9999999999999999e-01  7.5000000000000000e-01
-5.0000000000000003e-02  0.0000000000000000e+00  8.0000000000000004e-01
-5.0000000000000003e-02  2.9999999999999999e-01  8.0000000000000004e-01
-5.0000000000000003e-02  0.0000000000000000e+00  8.4999999999999998e-01
-5.0000000000000003e-02  2.9999999999999999e-01  8.4999999999999998e-01
-5.0000000000000003e-02  0.0000000000000000e+00  9.0000000000000002e-01
-5.0000000000000003e-02  2.9999999999999999e-01  9.0000000000000002e-01
-5.0000000000000003e-02  0.0000000000000000e+00  9.4999999999999996e-01
-5.0000000000000003e-02  2.9999999999999999e-01  9.4999999999999996e-01
-5.0000000000000003e-02  0.0000000000000000e+00  1.0000000000000000e+00
-5.0000000000000003e-02  2.9999999999999999e-01  1.0000000000000000e+00

CELLS 0 0


CELL_TYPES 0


POINT_DATA 86

VECTORS VertexNormals double

0.0000000000000000e+00 0.0000000000000000e+00 0.0000000000000000e+00 
0.0000000000000000e+00 0.0000000000000000e+00 0.0000000000000000e+00 
0.0000000000000000e+00 0.0000000000000000e+00 0.0000000000000000e+00 
0.0000000000000000e+00 0.0000000000000000e+00 0.0000000000000000e+00 
0.0000000000000000e+00 0.0000000000000000e+00 0.0000000000000000e+00 
0.0000000000000000e+00 0.0000000000000000e+00 0.0000000000000000e+00 
0.0000000000000000e+00 0.0000000000000000e+00 0.0000000000000000e+00 
0.0000000000000000e+00 0.0000000000000000e+00 0.0000000000000000e+00 
0.0000000000000000e+00 0.0000000000000000e+00 0.0000000000000000e+00 
0.0000000000000000e+00 0.0000000000000000e+00 0.0000000000000000e+00 
0.0000000000000000e+00 0.0000000000000000e+00 0.0000000000000000e+00 
0.0000000000000000e+00 0.0000000000000000e+00 0.0000000000000000e+00 
0.0000000000000000e+00 0.0000000000000000e+00 0.0000000000000000e+00 
0.0000000000000000e+00 0.0000000000000000e+00 0.0000000000000000e+00 
0.0000000000000000e+00 0.0000000000000000e+00 0.0000000000000000e+00 
0.0000000000000000e+00 0.0000000000000000e+00 0.0000000000000000e+00 
0.0000000000000000e+00 0.0000000000000000e+00 0.0000000000000000e+00 
0.0000000000000000e+00 0.0000000000000000e+00 0.0000000000000000e+00 
0.0000000000000000e+00 0.0000000000000000e+00 0.0000000000000000e+00 
0.0000000000000000e+00 0.0000000000000000e+00 0.0000000000000000e+00 
0.0000000000000000e+00 0.0000000000000000e+00 0.0000000000000000e+00 
0.0000000000000000e+00 0.0000000000000000e+00 0.0000000000000000e+00 
0.0000000000000000e+00 0.0000000000000000e+00 0.0000000000000000e+00 
0.0000000000000000e+00 0.0000000000000000e+00 0.0000000000000000e+00 
0.0000000000000000e+00 0.0000000000000000e+00 0.0000000000000000e+00 
0.0000000000000000e+00 0.0000000000000000e+00 0.0000000000000000e+00 
0.0000000000000000e+00 0.0000000000000000e+00 0.0000000000000000e+00 
0.0000000000000000e+00 0.0000000000000000e+00 0.0000000000000000e+00 
0.0000000000000000e+00 0.0000000000000000e+00 0.0000000000000000e+00 
0.0000000000000000e+00 0.0000000000000000e+00 0.0000000000000000e+00 
0.0000000000000000e+00 0.0000000000000000e+00 0.0000000000000000e+00 
0.0000000000000000e+00 0.0000000000000000e+00 0.0000000000000000e+00 
0.0000000000000000e+00 0.0000000000000000e+00 0.0000000000000000e+00 
0.0000000000000000e+00 0.0000000000000000e+00 0.0000000000000000e+00 
0.0000000000000000e+00 0.0000000000000000e+00 0.0000000000000000e+00 
0.0000000000000000e+00 0.0000000000000000e+00 0.0000000000000000e+00 
0.0000000000000000e+00 0.0000000000000000e+00 0.0000000000000000e+00 
0.0000000000000000e+00 0.0000000000000000e+00 0.0000000000000000e+00 
0.0000000000000000e+00 0.0000000000000000e+00 0.0000000000000000e+00 
0.0000000000000000e+00 0.0000000000000000e+00 0.0000000000000000e+00 
0.0000000000000000e+00 0.0000000000000000e+00 0.0000000000000000e+00 
0.0000000000000000e+00 0.0000000000000000e+00 0.0000000000000000e+00 
0.0000000000000000e+00 0.0000000000000000e+00 0.0000000000000000e+00 
0.0000000000000000e+00 0.0000000000000000e+00 0.0000000000000000e+00 
0.0000000000000000e+00 0.0000000000000000e+00 0.0000000000000000e+00 
0.0000000000000000e+00 0.0000000000000000e+00 0.0000000000000000e+00 
0.0000000000000000e+00 0.0000000000000000e+00 0.0000000000000000e+00 
0.0000000000000000e+00 0.0000000000000000e+00 0.0000000000000000e+00 
0.0000000000000000e+00 0.0000000000000000e+00 0.0000000000000000e+00 
0.0000000000000000e+00 0.0000000000000000e+00 0.0000000000000000e+00 
0.0000000000000000e+00 0.0000000000000000e+00 0.0000000000000000e+00 
0.0000000000000000e+00 0.0000000000000000e+00 0.0000000000000000e+00 
0.0000000000000000e+00 0.0000000000000000e+00 0.0000000000000000e+00 
0.0000000000000000e+00 0.0000000000000000e+00 0.0000000000000000e+00 
0.0000000000000000e+00 0.0000000000000000e+00 0.0000000000000000e+00 
0.0000000000000000e+00 0.0000000000000000e+00 0.0000000000000000e+00 
0.0000000000000000e+00 0.0000000000000000e+00 0.0000000000000000e+00 
0.0000000000000000e+00 0.0000000000000000e+00 0.0000000000000000e+00 
0.0000000000000000e+00 0.0000000000000000e+00 0.0000000000000000e+00 
0.0000000000000000e+00 0.0000000000000000e+00 0.0000000000000000e+00 
0.0000000000000000e+00 0.0000000000000000e+00 0.0000000000000000e+00 
0.0000000000000000e+00 0.0000000000000000e+00 0.0000000000000000e+00 
0.0000000000000000e+00 0.0000000000000000e+00 0.0000000000000000e+00 
0.0000000000000000e+00 0.0000000000000000e+00 0.0000000000000000e+00 
0.0000000000000000e+00 0.0000000000000000e+00 0.0000000000000000e+00 
0.0000000000000000e+00 0.0000000000000000e+00 0.0000000000000000e+00 
0.0000000000000000e+00 0.0000000000000000e+00 0.0000000000000000e+00 
0.0000000000000000e+00 0.0000000000000000e+00 0.0000000000000000e+00 
0.0000000000000000e+00 0.0000000000000000e+00 0.0000000000000000e+00 
0.0000000000000000e+00 0.0000000000000000e+00 0.0000000000000000e+00 
0.0000000000000000e+00 0.0000000000000000e+00 0.0000000000000000e+00 
0.0000000000000000e+00 0.0000000000000000e+00 0.0000000000000000e+00 
0.0000000000000000e+00 0.0000000000000000e+00 0.0000000000000000e+00 
0.0000000000000000e+00 0.0000000000000000e+00 0.0000000000000000e+00 
0.0000000000000000e+00 0.0000000000000000e+00 0.0000000000000000e+00 
0.0000000000000000e+00 0.0000000000000000e+00 0.0000000000000000e+00 
0.0000000000000000e+00 0.0000000000000000e+00 0.0000000000000000e+00 
0.0000000000000000e+00 0.0000000000000000e+00 0.0000000000000000e+00 
0.0000000000000000e+00 0.0000000000000000e+00 0.0000000000000000e+00 
0.0000000000000000e+00 0.0000000000000000e+00 0.0000000000000000e+00 
0.0000000000000000e+00 0.0000000000000000e+00 0.0000000000000000e+00 
0.0000000000000000e+00 0.0000000000000000e+00 0.0000000000000000e+00 
0.0000000000000000e+00 0.0000000000000000e+00 0.0000000000000000e+00 
0.0000000000000000e+00 0.0000000000000000e+00 0.0000000000000000e+00 
0.0000000000000000e+00 0.0000000000000000e+00 0.0000000000000000e+00 
0.0000000000000000e+00 0.0000000000000000e+00 0.0000000000000000e+00 

VECTORS Forces0 double
-2.2552392747584593e-01 0.0000000000000000e+00 6.2733423149660553e-03 
-4.7669377624082315e-01 0.0000000000000000e+00 1.9173093874541407e-02 
-2.2552392747654032e-01 0.0000000000000000e+00 6.2733425791679249e-03 
-4.7669377631476606e-01 0.0000000000000000e+00 1.9173093742874459e-02 
-5.5097649072530674e-01 0.0000000000000000e+00 4.9069553062013868e-02 
-5.5097649050352437e-01 0.0000000000000000e+00 4.9069553127847686e-02 
-4.6479445860518048e-01 0.0000000000000000e+00 6.4697731552515084e-02 
-4.6479445928184743e-01 0.0000000000000000e+00 6.4697731507211559e-02 
-4.4670958764968960e-01 0.0000000000000000e+00 7.5863568699016073e-02 
-4.4670958712491582e-01 0.0000000000000000e+00 7.5863568743328683e-02 
-4.6252440175889081e-01 0.0000000000000000e+00 9.2436179668299381e-02 
-4.6252440205612366e-01 0.0000000000000000e+00 9.2436179512464203e-02 
-5.4782790821784022e-01 0.0000000000000000e+00 1.3299598786055999e-01 
-5.4782790776337764e-01 0.0000000000000000e+00 1.3299598792706840e-01 
-4.5170031069453670e-01 0.0000000000000000e+00 1.2804425573710590e-01 
-4.5170031062053800e-01 0.0000000000000000e+00 1.2804425567084990e-01 
-4.3098794405738189e-01 0.0000000000000000e+00 1.3289921576179844e-01 
-4.3098794435715948e-01 0.0000000000000000e+00 1.3289921576206337e-01 
-4.4032222233065355e-01 0.0000000000000000e+00 1.4667757689848143e-01 
-4.4032222203429117e-01 0.0000000000000000e+00 1.4667757703160991e-01 
-5.1091536751052913e-01 0.0000000000000000e+00 1.8752960438142877e-01 
-5.1091536728442466e-01 0.0000000000000000e+00 1.8752960435989383e-01 
-4.1388925202766763e-01 0.0000000000000000e+00 1.6476750256733480e-01 
-4.1388925232797752e-01 0.0000000000000000e+00 1.6476750258935721e-01 
-3.8983709599905575e-01 0.0000000000000000e+00 1.6293262176771325e-01 
-3.8983709599972188e-01 0.0000000000000000e+00 1.6293262187879734e-01 
-3.9146301269881234e-01 0.0000000000000000e+00 1.7137684160144065e-01 
-3.9146301285027996e-01 0.0000000000000000e+00 1.7137684160167918e-01 
-4.4399497467789450e-01 0.0000000000000000e+00 2.0619449019041386e-01 
-4.4399497497949891e-01 0.0000000000000000e+00 2.0619449021229494e-01 
-3.5452185449760693e-01 0.0000000000000000e+00 1.7043903982045902e-01 
-3.5452185442253104e-01 0.0000000000000000e+00 1.7043903990936285e-01 
-3.3149681560687472e-01 0.0000000000000000e+00 1.6080953089213113e-01 
-3.3149681590497787e-01 0.0000000000000000e+00 1.6080953084781463e-01 
-3.3026237581672657e-01 0.0000000000000000e+00 1.6103799575032782e-01 
-3.3026237536815850e-01 0.0000000000000000e+00 1.6103799577198386e-01 
-3.6407572282078948e-01 0.0000000000000000e+00 1.7871765889569932e-01 
-3.6407572289319773e-01 0.0000000000000000e+00 1.7871765891771957e-01 
-3.1908556441615443e-01 0.0000000000000000e+00 1.4962579574384360e-01 
-3.1908556426468199e-01 0.0000000000000000e+00 1.4962579576626586e-01 
-2.4479215935888473e-02 0.0000000000000000e+00 -5.5112795128570660e-02 
-1.6420026975220609e-01 0.0000000000000000e+00 -1.0627620457754686e-02 
-2.4479215932388890e-02 0.0000000000000000e+00 -5.5112795038779000e-02 
-1.6420026952441794e-01 0.0000000000000000e+00 -1.0627620302200722e-02 
5.1592995373315387e-01 0.0000000000000000e+00 -1.9655872318915368e-02 
1.4292407127040243e+00 0.0000000000000000e+00 -5.2543208628434208e-02 
5.1592995343346726e-01 0.0000000000000000e+00 -1.9655872407906706e-02 
1.4292407130049676e+00 0.0000000000000000e+00 -5.2543208606788912e-02 
1.4662674957375306e+00 0.0000000000000000e+00 -1.2992653492479814e-01 
1.4662674958122541e+00 0.0000000000000000e+00 -1.2992653499169571e-01 
1.2729629217165284e+00 0.0000000000000000e+00 -1.7385347298422302e-01 
1.2729629215662881e+00 0.0000000000000000e+00 -1.7385347296128703e-01 
1.2474422634990785e+00 0.0000000000000000e+00 -2.0936674330546948e-01 
1.2474422638736811e+00 0.0000000000000000e+00 -2.0936674328390317e-01 
1.2419886248085110e+00 0.0000000000000000e+00 -2.4689489728364258e-01 
1.2419886245866754e+00 0.0000000000000000e+00 -2.4689489728401415e-01 
1.4068011012418826e+00 0.0000000000000000e+00 -3.3883992526465440e-01 
1.4068011011660930e+00 0.0000000000000000e+00 -3.3883992539764829e-01 
1.1707463559263573e+00 0.0000000000000000e+00 -3.2795495598514462e-01 
1.1707463557765598e+00 0.0000000000000000e+00 -3.2795495594071544e-01 
1.1307904531679145e+00 0.0000000000000000e+00 -3.4492064889377766e-01 
1.1307904531672299e+00 0.0000000000000000e+00 -3.4492064889387847e-01 
1.1063839209904605e+00 0.0000000000000000e+00 -3.6575175420481415e-01 
1.1063839209911548e+00 0.0000000000000000e+00 -3.6575175416041711e-01 
1.2270688613624949e+00 0.0000000000000000e+00 -4.4620788610974349e-01 
1.2270688613623930e+00 0.0000000000000000e+00 -4.4620788613185652e-01 
1.0044708840963552e+00 0.0000000000000000e+00 -3.9513714123529925e-01 
1.0044708839455387e+00 0.0000000000000000e+00 -3.9513714127980065e-01 
9.6003834051863135e-01 0.0000000000000000e+00 -3.9646900708534583e-01 
9.6003834059338444e-01 0.0000000000000000e+00 -3.9646900706294713e-01 
9.2989158210202782e-01 0.0000000000000000e+00 -4.0277283312428741e-01 
9.2989158202764333e-01 0.0000000000000000e+00 -4.0277283314654305e-01 
1.0151497305693604e+00 0.0000000000000000e+00 -4.6575254823561724e-01 
1.0151497304944226e+00 0.0000000000000000e+00 -4.6575254823562540e-01 
8.1682973076138443e-01 0.0000000000000000e+00 -3.8705846179854697e-01 
8.1682973061097897e-01 0.0000000000000000e+00 -3.8705846177654801e-01 
7.7137438181811158e-01 0.0000000000000000e+00 -3.6815082649928776e-01 
7.7137438181859141e-01 0.0000000000000000e+00 -3.6815082647716885e-01 
7.3830522783037178e-01 0.0000000000000000e+00 -3.5430761014169526e-01 
7.3830522782944463e-01 0.0000000000000000e+00 -3.5430761011948303e-01 
7.7765545598205155e-01 0.0000000000000000e+00 -3.7113158747588842e-01 
7.7765545613277587e-01 0.0000000000000000e+00 -3.7113158745368935e-01 
6.2418470930369407e-01 0.0000000000000000e+00 -2.9789130843354505e-01 
6.2418470937883308e-01 0.0000000000000000e+00 -2.9789130841151107e-01 
2.6173928128492330e-01 0.0000000000000000e+00 -6.1062390305102028e-02 
2.6173928120935863e-01 0.0000000000000000e+00 -6.1062390305187626e-02 

VECTORS Displacements0 double
6.9356603593235591e-310 0.0000000000000000e+00 0.0000000000000000e+00 
1.4155003655372304e-03 0.0000000000000000e+00 -2.1790618729375499e-03 
0.0000000000000000e+00 0.0000000000000000e+00 0.0000000000000000e+00 
1.4155003658447979e-03 0.0000000000000000e+00 -2.1790618731000353e-03 
4.5363684131006317e-03 0.0000000000000000e+00 -4.4838151834052245e-03 
4.5363684136467556e-03 0.0000000000000000e+00 -4.4838151835636039e-03 
9.7447296647470653e-03 0.0000000000000000e+00 -6.8512932483896392e-03 
9.7447296653199299e-03 0.0000000000000000e+00 -6.8512932484263434e-03 
1.6903015231872692e-02 0.0000000000000000e+00 -9.3922254955371848e-03 
1.6903015232394264e-02 0.0000000000000000e+00 -9.3922254954120730e-03 
2.5954317308212117e-02 0.0000000000000000e+00 -1.2136904443168275e-02 
2.5954317308332062e-02 0.0000000000000000e+00 -1.2136904442924827e-02 
3.6758923282980450e-02 0.0000000000000000e+00 -1.5105755654618054e-02 
3.6758923282771493e-02 0.0000000000000000e+00 -1.5105755654354120e-02 
4.9176366728280269e-02 0.0000000000000000e+00 -1.8332607688621272e-02 
4.9176366727852881e-02 0.0000000000000000e+00 -1.8332607688448969e-02 
6.3090150450632904e-02 0.0000000000000000e+00 -2.1849843746945260e-02 
6.3090150450128210e-02 0.0000000000000000e+00 -2.1849843746954794e-02 
7.8397813778183612e-02 0.0000000000000000e+00 -2.5665162061973799e-02 
7.8397813777864103e-02 0.0000000000000000e+00 -2.5665162062183489e-02 
9.4966612229186440e-02 0.0000000000000000e+00 -2.9762295794903748e-02 
9.4966612229109126e-02 0.0000000000000000e+00 -2.9762295795248795e-02 
1.1265162251995241e-01 0.0000000000000000e+00 -3.4130137748933510e-02 
1.1265162252012807e-01 0.0000000000000000e+00 -3.4130137749321665e-02 
1.3132557882347551e-01 0.0000000000000000e+00 -3.8769704031026885e-02 
1.3132557882381665e-01 0.0000000000000000e+00 -3.8769704031378277e-02 
1.5090642410295332e-01 0.0000000000000000e+00 -4.3678376066063528e-02 
1.5090642410336419e-01 0.0000000000000000e+00 -4.3678376066343449e-02 
1.7132124545828864e-01 0.0000000000000000e+00 -4.8815961840351620e-02 
1.7132124545869537e-01 0.0000000000000000e+00 -4.8815961840486255e-02 
1.9246035672488382e-01 0.0000000000000000e+00 -5.4093068823945240e-02 
1.9246035672511533e-01 0.0000000000000000e+00 -5.4093068823858878e-02 
2.1413232457372480e-01 0.0000000000000000e+00 -5.9384705637634871e-02 
2.1413232457363202e-01 0.0000000000000000e+00 -5.9384705637384461e-02 
2.3608999395599425e-01 0.0000000000000000e+00 -6.4585085540289258e-02 
2.3608999395563293e-01 0.0000000000000000e+00 -6.4585085540007969e-02 
2.5809848323776546e-01 0.0000000000000000e+00 -6.9659129354064528e-02 
2.5809848323725454e-01 0.0000000000000000e+00 -6.9659129353870919e-02 
2.8003068049825114e-01 0.0000000000000000e+00 -7.4657644431394596e-02 
2.8003068049778579e-01 0.0000000000000000e+00 -7.4657644431309608e-02 
3.0693338109381907e-01 0.0000000000000000e+00 -5.7809459296538669e-02 
3.0189553662940355e-01 0.0000000000000000e+00 -7.9661018347484708e-02 
3.0693338109342527e-01 0.0000000000000000e+00 -5.7809459296463854e-02 
3.0189553662901270e-01 0.0000000000000000e+00 -7.9661018347452706e-02 
0.0000000000000000e+00 0.0000000000000000e+00 0.0000000000000000e+00 
1.5759943007042925e-03 0.0000000000000000e+00 2.0987359612270854e-03 
0.0000000000000000e+00 0.0000000000000000e+00 0.0000000000000000e+00 
1.5759943010084133e-03 0.0000000000000000e+00 2.0987359613458176e-03 
4.9914589605396633e-03 0.0000000000000000e+00 4.1366594066685834e-03 
4.9914589610719580e-03 0.0000000000000000e+00 4.1366594067179276e-03 
1.0634852876646145e-02 0.0000000000000000e+00 5.8889553292514685e-03 
1.0634852877244088e-02 0.0000000000000000e+00 5.8889553291297664e-03 
1.8382413071068821e-02 0.0000000000000000e+00 7.2989486650674460e-03 
1.8382413071462947e-02 0.0000000000000000e+00 7.2989486648083060e-03 
2.8134999094475165e-02 0.0000000000000000e+00 8.2635974891966130e-03 
2.8134999094495683e-02 0.0000000000000000e+00 8.2635974889316878e-03 
3.9722210914795227e-02 0.0000000000000000e+00 8.7180420548983589e-03 
3.9722210914488180e-02 0.0000000000000000e+00 8.7180420547563527e-03 
5.2964202626481563e-02 0.0000000000000000e+00 8.6410966492778702e-03 
5.2964202625988041e-02 0.0000000000000000e+00 8.6410966493144590e-03 
6.7737860330358460e-02 0.0000000000000000e+00 8.0168195002420783e-03 
6.7737860329906474e-02 0.0000000000000000e+00 8.0168195004022592e-03 
8.3909414821800213e-02 0.0000000000000000e+00 6.8274246687801176e-03 
8.3909414821581527e-02 0.0000000000000000e+00 6.8274246689505177e-03 
1.0132069971469963e-01 0.0000000000000000e+00 5.0710310645882117e-03 
1.0132069971477911e-01 0.0000000000000000e+00 5.0710310646574020e-03 
1.1979956253261419e-01 0.0000000000000000e+00 2.7811192941380376e-03 
1.1979956253290611e-01 0.0000000000000000e+00 2.7811192940660600e-03 
1.3922936167649208e-01 0.0000000000000000e+00 -5.8809280752101702e-06 
1.3922936167690048e-01 0.0000000000000000e+00 -5.8809282739920021e-06 
1.5951639104163939e-01 0.0000000000000000e+00 -3.2697714560951377e-03 
1.5951639104205353e-01 0.0000000000000000e+00 -3.2697714563967978e-03 
1.8055764446628178e-01 0.0000000000000000e+00 -7.0140826016041203e-03 
1.8055764446656991e-01 0.0000000000000000e+00 -7.0140826019818633e-03 
2.0217994402228184e-01 0.0000000000000000e+00 -1.1229430190383598e-02 
2.0217994402229328e-01 0.0000000000000000e+00 -1.1229430190749699e-02 
2.2415720850969173e-01 0.0000000000000000e+00 -1.5864075448664420e-02 
2.2415720850935839e-01 0.0000000000000000e+00 -1.5864075448873364e-02 
2.4623739491986305e-01 0.0000000000000000e+00 -2.0794372757362210e-02 
2.4623739491931801e-01 0.0000000000000000e+00 -2.0794372757355340e-02 
2.6824297160519828e-01 0.0000000000000000e+00 -2.5859654467396336e-02 
2.6824297160465582e-01 0.0000000000000000e+00 -2.5859654467253589e-02 
2.9012669828000826e-01 0.0000000000000000e+00 -3.0927196767779247e-02 
2.9012669827954779e-01 0.0000000000000000e+00 -3.0927196767622692e-02 
3.1196519644918197e-01 0.0000000000000000e+00 -3.5959793425926631e-02 
3.1196519644877685e-01 0.0000000000000000e+00 -3.5959793425806921e-02 

