/*--------------------------------*- C++ -*----------------------------------*\
| =========                 |                                                 |
| \\      /  F ield         | OpenFOAM: The Open Source CFD Toolbox           |
|  \\    /   O peration     | Version:  5.x                                   |
|   \\  /    A nd           | Web:      www.OpenFOAM.org                      |
|    \\/     M anipulation  |                                                 |
\*---------------------------------------------------------------------------*/
FoamFile
{
    version     2.0;
    format      ascii;
    class       volVectorField;
    location    "1.5";
    object      cellDisplacement;
}
// * * * * * * * * * * * * * * * * * * * * * * * * * * * * * * * * * * * * * //

dimensions      [0 1 0 0 0 0 0];

internalField   nonuniform List<vector> 
2790
(
(0.012399 0 -6.43648e-05)
(0.0353401 0 -0.000183855)
(0.0547947 0 -0.000287847)
(0.0710829 0 -0.000379088)
(0.0845553 0 -0.000459972)
(0.0955161 0 -0.000532143)
(0.104228 0 -0.00059668)
(0.110918 0 -0.000654225)
(0.115784 0 -0.000705159)
(0.118995 0 -0.000751049)
(0.120702 0 -0.000788326)
(0.121042 0 -0.000818179)
(0.120132 0 -0.00083988)
(0.118076 0 -0.00085233)
(0.114966 0 -0.00085416)
(0.110888 0 -0.000843701)
(0.105921 0 -0.000818951)
(0.100142 0 -0.000777538)
(0.0936239 0 -0.00071668)
(0.0864432 0 -0.000633144)
(0.0786792 0 -0.000523241)
(0.0704165 0 -0.00038253)
(0.0617493 0 -0.000205844)
(0.0527867 0 1.26465e-05)
(0.0436615 0 0.00027935)
(0.0345455 0 0.000601319)
(0.0256827 0 0.000987139)
(0.0174859 0 0.0014484)
(0.0106287 0 0.0019828)
(0.00674084 0 0.00251169)
(0.0124159 0 -0.000193402)
(0.0353903 0 -0.000552523)
(0.0548765 0 -0.000865215)
(0.0711962 0 -0.00113966)
(0.0847024 0 -0.00138312)
(0.0956999 0 -0.00160053)
(0.104452 0 -0.00179514)
(0.111187 0 -0.00196888)
(0.116105 0 -0.00212243)
(0.119369 0 -0.002255)
(0.121138 0 -0.0023671)
(0.121549 0 -0.00245768)
(0.120719 0 -0.00252416)
(0.118753 0 -0.00256328)
(0.115747 0 -0.00257105)
(0.111786 0 -0.00254259)
(0.106954 0 -0.00247208)
(0.101328 0 -0.0023526)
(0.0949872 0 -0.00217609)
(0.0880105 0 -0.00193319)
(0.0804853 0 -0.00161346)
(0.0725051 0 -0.00120419)
(0.0641763 0 -0.000690605)
(0.0556259 0 -5.60827e-05)
(0.0470144 0 0.000717489)
(0.0385476 0 0.00164944)
(0.0304775 0 0.00276108)
(0.0232476 0 0.00406002)
(0.017701 0 0.00551457)
(0.0158744 0 0.00683543)
(0.01245 0 -0.00032253)
(0.0354915 0 -0.000921557)
(0.0550407 0 -0.00144347)
(0.0714225 0 -0.00190166)
(0.0849958 0 -0.00230846)
(0.0960664 0 -0.0026721)
(0.104899 0 -0.00299807)
(0.111723 0 -0.00328965)
(0.116738 0 -0.00354786)
(0.120113 0 -0.00376917)
(0.122008 0 -0.00395906)
(0.122561 0 -0.00411414)
(0.121891 0 -0.00423005)
(0.120107 0 -0.00430158)
(0.117307 0 -0.00432241)
(0.113581 0 -0.00428481)
(0.109016 0 -0.00417956)
(0.103697 0 -0.00399581)
(0.0977074 0 -0.00372092)
(0.0911346 0 -0.00334014)
(0.0840806 0 -0.00283838)
(0.076654 0 -0.00219634)
(0.0689797 0 -0.00139207)
(0.0612111 0 -0.000401551)
(0.0535528 0 0.000799521)
(0.0463038 0 0.002231)
(0.0398318 0 0.00390275)
(0.0346225 0 0.00579601)
(0.0314533 0 0.00782374)
(0.0330273 0 0.00936146)
(0.0125005 0 -0.000451146)
(0.0356424 0 -0.00128922)
(0.0552851 0 -0.00202001)
(0.0717584 0 -0.00266159)
(0.0854313 0 -0.00323177)
(0.0966105 0 -0.00374208)
(0.105563 0 -0.00420027)
(0.112519 0 -0.00461123)
(0.117681 0 -0.00497731)
(0.121221 0 -0.0052956)
(0.123302 0 -0.00556795)
(0.124066 0 -0.00579337)
(0.123634 0 -0.00596594)
(0.122119 0 -0.00607888)
(0.119623 0 -0.00612408)
(0.116245 0 -0.00609155)
(0.112077 0 -0.00596943)
(0.107212 0 -0.00574392)
(0.101743 0 -0.00539915)
(0.0957651 0 -0.00491536)
(0.0894081 0 -0.00427775)
(0.0828032 0 -0.0034629)
(0.0761035 0 -0.0024461)
(0.0694969 0 -0.00120192)
(0.0632269 0 0.000293321)
(0.0576441 0 0.00204903)
(0.0532979 0 0.00403745)
(0.0509855 0 0.00615903)
(0.0514727 0 0.00823395)
(0.0572389 0 0.00930056)
(0.0125664 0 -0.000579725)
(0.0358424 0 -0.00165694)
(0.0556074 0 -0.00259464)
(0.0721996 0 -0.00341919)
(0.0860044 0 -0.00415308)
(0.0973267 0 -0.00481089)
(0.106436 0 -0.00540274)
(0.113567 0 -0.00593527)
(0.118923 0 -0.00641343)
(0.12268 0 -0.00683192)
(0.125003 0 -0.00719134)
(0.126043 0 -0.00749455)
(0.125922 0 -0.00773314)
(0.124758 0 -0.00789933)
(0.122662 0 -0.00798414)
(0.119739 0 -0.00797612)
(0.11609 0 -0.0078618)
(0.111819 0 -0.00762597)
(0.10704 0 -0.00725241)
(0.101858 0 -0.00672004)
(0.0964036 0 -0.00600706)
(0.090858 0 -0.00509616)
(0.085404 0 -0.00396472)
(0.0802753 0 -0.0025936)
(0.0758303 0 -0.000983567)
(0.0724429 0 0.00085697)
(0.0707199 0 0.00286533)
(0.0716833 0 0.00483414)
(0.076683 0 0.00634167)
(0.0873554 0 0.00626046)
(0.0126465 0 -0.000708065)
(0.0360716 0 -0.0020236)
(0.0559887 0 -0.00316857)
(0.0727431 0 -0.00417755)
(0.0867129 0 -0.0050766)
(0.0982126 0 -0.00588395)
(0.107516 0 -0.00661213)
(0.114864 0 -0.00726935)
(0.120454 0 -0.00785896)
(0.124474 0 -0.00838275)
(0.127104 0 -0.00884239)
(0.128486 0 -0.00923385)
(0.128747 0 -0.00955052)
(0.128015 0 -0.00978478)
(0.12641 0 -0.00992799)
(0.124043 0 -0.00996799)
(0.121027 0 -0.00989069)
(0.117479 0 -0.00968041)
(0.113529 0 -0.00932295)
(0.109315 0 -0.00880017)
(0.104961 0 -0.00808481)
(0.100709 0 -0.00717332)
(0.0967759 0 -0.00605037)
(0.0934345 0 -0.00470714)
(0.0910778 0 -0.00316367)
(0.0902745 0 -0.0014917)
(0.0917312 0 0.000178019)
(0.096352 0 0.00158045)
(0.106099 0 0.001993)
(0.12222 0 0.000166354)
(0.0127404 0 -0.000835397)
(0.0363453 0 -0.00238797)
(0.0564431 0 -0.00374165)
(0.0733855 0 -0.00493574)
(0.0875506 0 -0.00600133)
(0.0992599 0 -0.00696031)
(0.108792 0 -0.00782772)
(0.116389 0 -0.00861307)
(0.122258 0 -0.00931933)
(0.126598 0 -0.00995571)
(0.129587 0 -0.0105242)
(0.131366 0 -0.0110143)
(0.132077 0 -0.0114225)
(0.13185 0 -0.0117413)
(0.130818 0 -0.0119643)
(0.129102 0 -0.0120791)
(0.126826 0 -0.0120722)
(0.124113 0 -0.0119276)
(0.121129 0 -0.0116386)
(0.118028 0 -0.0111889)
(0.114973 0 -0.0105604)
(0.112206 0 -0.00975025)
(0.110009 0 -0.00876243)
(0.108736 0 -0.00761787)
(0.108813 0 -0.00636292)
(0.110865 0 -0.00511084)
(0.115814 0 -0.00410703)
(0.124692 0 -0.00372847)
(0.139211 0 -0.00481572)
(0.160817 0 -0.0088259)
(0.0128474 0 -0.000961572)
(0.0366599 0 -0.00274944)
(0.0569634 0 -0.00431038)
(0.074118 0 -0.00568909)
(0.0885056 0 -0.0069216)
(0.100454 0 -0.0080335)
(0.110246 0 -0.00904255)
(0.118131 0 -0.00996037)
(0.124322 0 -0.0107935)
(0.129022 0 -0.0115485)
(0.132411 0 -0.0122291)
(0.134641 0 -0.0128289)
(0.135859 0 -0.0133432)
(0.1362 0 -0.0137637)
(0.135816 0 -0.0140906)
(0.134838 0 -0.0143109)
(0.133403 0 -0.0144137)
(0.131656 0 -0.0143887)
(0.129755 0 -0.0142247)
(0.127898 0 -0.0139178)
(0.126286 0 -0.013461)
(0.125194 0 -0.0128656)
(0.124935 0 -0.0121515)
(0.125919 0 -0.0113668)
(0.128673 0 -0.0106073)
(0.133932 0 -0.0100538)
(0.142558 0 -0.00999457)
(0.156045 0 -0.0110309)
(0.175414 0 -0.0139641)
(0.20229 0 -0.0204056)
(0.0129666 0 -0.00108639)
(0.0370112 0 -0.00310738)
(0.0575439 0 -0.00487407)
(0.0749339 0 -0.00643682)
(0.0895693 0 -0.00783666)
(0.101784 0 -0.00910292)
(0.111867 0 -0.0102563)
(0.120071 0 -0.0113107)
(0.126619 0 -0.0122751)
(0.131715 0 -0.013155)
(0.135549 0 -0.0139585)
(0.138279 0 -0.0146805)
(0.140061 0 -0.015318)
(0.141046 0 -0.0158676)
(0.141381 0 -0.0163242)
(0.141213 0 -0.0166805)
(0.140696 0 -0.0169297)
(0.140007 0 -0.0170711)
(0.139289 0 -0.0170888)
(0.1388 0 -0.0169993)
(0.138763 0 -0.0168056)
(0.139477 0 -0.0165315)
(0.141307 0 -0.0162228)
(0.144766 0 -0.0159748)
(0.150394 0 -0.0159113)
(0.159022 0 -0.0162836)
(0.171649 0 -0.0174758)
(0.189658 0 -0.0201599)
(0.214124 0 -0.0252533)
(0.245998 0 -0.0342351)
(0.0130965 0 -0.00120963)
(0.0373954 0 -0.00346119)
(0.0581787 0 -0.0054319)
(0.0758259 0 -0.00717798)
(0.0907325 0 -0.00874551)
(0.103238 0 -0.0101676)
(0.113639 0 -0.0114679)
(0.122193 0 -0.0126632)
(0.12913 0 -0.0137648)
(0.134667 0 -0.0147828)
(0.13899 0 -0.0157207)
(0.142263 0 -0.0165776)
(0.144656 0 -0.0173546)
(0.146335 0 -0.0180525)
(0.147444 0 -0.0186632)
(0.148148 0 -0.0191854)
(0.148608 0 -0.0196161)
(0.149036 0 -0.0199658)
(0.149616 0 -0.0202333)
(0.15058 0 -0.0204306)
(0.152218 0 -0.0205861)
(0.154866 0 -0.0207453)
(0.158932 0 -0.0209784)
(0.164938 0 -0.0214026)
(0.173626 0 -0.022234)
(0.185737 0 -0.0237351)
(0.202575 0 -0.0264432)
(0.225126 0 -0.0309924)
(0.254834 0 -0.0384837)
(0.291447 0 -0.0500517)
(0.0132372 0 -0.00133165)
(0.0378112 0 -0.00381184)
(0.0588653 0 -0.0059855)
(0.0767908 0 -0.0079148)
(0.0919912 0 -0.00965096)
(0.104813 0 -0.0112308)
(0.115557 0 -0.0126813)
(0.124489 0 -0.0140219)
(0.131847 0 -0.015267)
(0.137857 0 -0.0164308)
(0.142696 0 -0.017512)
(0.146546 0 -0.0185154)
(0.149587 0 -0.0194461)
(0.151981 0 -0.0203027)
(0.15391 0 -0.0210919)
(0.155538 0 -0.0218122)
(0.157056 0 -0.0224705)
(0.158662 0 -0.023075)
(0.160598 0 -0.0236463)
(0.163076 0 -0.0241959)
(0.166461 0 -0.0247826)
(0.171108 0 -0.025469)
(0.177499 0 -0.0263651)
(0.186188 0 -0.0276194)
(0.197943 0 -0.0294842)
(0.213745 0 -0.0323395)
(0.234709 0 -0.0367183)
(0.26201 0 -0.0433813)
(0.29703 0 -0.0534608)
(0.338125 0 -0.0676496)
(0.0133874 0 -0.00145215)
(0.0382545 0 -0.00415844)
(0.059597 0 -0.00653348)
(0.0778194 0 -0.00864542)
(0.0933337 0 -0.0105508)
(0.106491 0 -0.01229)
(0.117601 0 -0.0138933)
(0.126934 0 -0.0153829)
(0.134735 0 -0.0167755)
(0.141232 0 -0.0180864)
(0.146615 0 -0.0193197)
(0.151068 0 -0.0204802)
(0.15479 0 -0.0215808)
(0.157956 0 -0.0226244)
(0.160741 0 -0.0236157)
(0.163328 0 -0.0245613)
(0.165937 0 -0.0254797)
(0.168746 0 -0.026376)
(0.17205 0 -0.0272931)
(0.176107 0 -0.028263)
(0.181274 0 -0.0293526)
(0.187951 0 -0.0306513)
(0.196674 0 -0.0323036)
(0.208078 0 -0.0345079)
(0.22296 0 -0.0375573)
(0.242414 0 -0.041909)
(0.267502 0 -0.048129)
(0.299766 0 -0.0571475)
(0.340098 0 -0.0699774)
(0.385317 0 -0.0867918)
(0.0135442 0 -0.00157013)
(0.0387182 0 -0.00449831)
(0.0603628 0 -0.00707167)
(0.078897 0 -0.0093643)
(0.0947417 0 -0.0114383)
(0.108252 0 -0.0133374)
(0.119744 0 -0.0150952)
(0.129495 0 -0.0167367)
(0.137757 0 -0.0182801)
(0.144765 0 -0.019746)
(0.150713 0 -0.0211407)
(0.155808 0 -0.0224759)
(0.16024 0 -0.0237618)
(0.164199 0 -0.0250088)
(0.167857 0 -0.0262206)
(0.171413 0 -0.027412)
(0.175109 0 -0.0286132)
(0.179165 0 -0.0298458)
(0.183859 0 -0.0311538)
(0.189486 0 -0.0325898)
(0.196425 0 -0.0342384)
(0.205099 0 -0.0362097)
(0.216135 0 -0.0387003)
(0.230142 0 -0.0419231)
(0.248114 0 -0.0462707)
(0.271025 0 -0.0522007)
(0.300323 0 -0.0604594)
(0.337646 0 -0.0720634)
(0.383213 0 -0.0878057)
(0.432022 0 -0.107184)
(0.013706 0 -0.0016853)
(0.039198 0 -0.0048306)
(0.0611553 0 -0.00759874)
(0.080014 0 -0.0100696)
(0.0962042 0 -0.0123115)
(0.110081 0 -0.0143706)
(0.12197 0 -0.0162842)
(0.132153 0 -0.0180805)
(0.1409 0 -0.0197841)
(0.14844 0 -0.021412)
(0.154976 0 -0.0229768)
(0.160724 0 -0.0244952)
(0.16587 0 -0.025975)
(0.170608 0 -0.0274297)
(0.175151 0 -0.0288804)
(0.179708 0 -0.0303478)
(0.184502 0 -0.0318584)
(0.189788 0 -0.0334518)
(0.195853 0 -0.0351826)
(0.203023 0 -0.0371217)
(0.211692 0 -0.0393719)
(0.222323 0 -0.0420722)
(0.235506 0 -0.0454259)
(0.252038 0 -0.04974)
(0.272768 0 -0.0553881)
(0.298933 0 -0.0629698)
(0.332195 0 -0.073363)
(0.373983 0 -0.0875603)
(0.423993 0 -0.106159)
(0.475693 0 -0.127979)
(0.0138717 0 -0.00179735)
(0.0396911 0 -0.00515457)
(0.0619685 0 -0.00811347)
(0.0811671 0 -0.0107628)
(0.0977181 0 -0.0131724)
(0.111974 0 -0.0153916)
(0.124272 0 -0.0174623)
(0.134908 0 -0.0194172)
(0.14415 0 -0.021284)
(0.152223 0 -0.0230767)
(0.159349 0 -0.024816)
(0.165739 0 -0.0265173)
(0.171605 0 -0.0282008)
(0.177151 0 -0.0298847)
(0.182581 0 -0.0315894)
(0.188127 0 -0.0333472)
(0.193988 0 -0.0351804)
(0.200477 0 -0.0371552)
(0.207875 0 -0.0393307)
(0.216516 0 -0.0417919)
(0.226819 0 -0.0446624)
(0.23927 0 -0.048106)
(0.254461 0 -0.052348)
(0.273181 0 -0.0577217)
(0.296303 0 -0.0646482)
(0.32525 0 -0.0738465)
(0.361364 0 -0.0861492)
(0.405818 0 -0.102555)
(0.457676 0 -0.123424)
(0.511581 0 -0.147757)
(0.0102705 0 -0.00363979)
(0.0244366 0 -0.00466488)
(0.0581271 0 -0.00625753)
(0.114608 0 -0.0081455)
(0.183315 0 -0.00977848)
(0.246042 0 -0.0107166)
(0.293455 0 -0.0109888)
(0.326503 0 -0.0108193)
(0.3489 0 -0.0104418)
(0.36374 0 -0.00994929)
(0.373104 0 -0.00937577)
(0.37828 0 -0.00873031)
(0.380099 0 -0.00811421)
(0.379047 0 -0.00752003)
(0.375402 0 -0.00695273)
(0.369325 0 -0.00641424)
(0.360902 0 -0.00590435)
(0.350163 0 -0.00542137)
(0.337107 0 -0.00496261)
(0.3217 0 -0.00452471)
(0.303894 0 -0.0041038)
(0.283622 0 -0.0036957)
(0.260809 0 -0.00329593)
(0.235369 0 -0.00289976)
(0.207215 0 -0.00250211)
(0.176256 0 -0.00209745)
(0.142398 0 -0.00167957)
(0.105551 0 -0.00124143)
(0.065641 0 -0.000774979)
(0.0224352 0 -0.000268608)
(0.0177042 0 -0.0112236)
(0.0335563 0 -0.0143682)
(0.0685468 0 -0.0189776)
(0.124998 0 -0.0244281)
(0.191993 0 -0.0289508)
(0.252377 0 -0.0314933)
(0.297899 0 -0.0322184)
(0.329692 0 -0.0317704)
(0.351259 0 -0.0306437)
(0.365532 0 -0.0291961)
(0.374489 0 -0.0275189)
(0.379379 0 -0.0256953)
(0.380992 0 -0.0239133)
(0.37978 0 -0.0221884)
(0.376008 0 -0.0205369)
(0.36983 0 -0.0189656)
(0.361324 0 -0.0174744)
(0.350518 0 -0.0160588)
(0.337405 0 -0.0147115)
(0.321953 0 -0.0134229)
(0.304109 0 -0.0121821)
(0.283806 0 -0.010977)
(0.260967 0 -0.00979457)
(0.235505 0 -0.00862108)
(0.207332 0 -0.00744171)
(0.176355 0 -0.00624017)
(0.142482 0 -0.00499823)
(0.105618 0 -0.00369506)
(0.0656884 0 -0.00230695)
(0.0224551 0 -0.000799593)
(0.0319326 0 -0.0195396)
(0.0508992 0 -0.0249075)
(0.0881154 0 -0.0324059)
(0.144364 0 -0.040847)
(0.208153 0 -0.0475511)
(0.264341 0 -0.0511648)
(0.306434 0 -0.0521112)
(0.335873 0 -0.0513893)
(0.355849 0 -0.0495882)
(0.36903 0 -0.0472358)
(0.377204 0 -0.0445086)
(0.381543 0 -0.0416644)
(0.382748 0 -0.0388421)
(0.381221 0 -0.0360981)
(0.377199 0 -0.0334616)
(0.37082 0 -0.0309449)
(0.36215 0 -0.0285489)
(0.351211 0 -0.0262676)
(0.337988 0 -0.02409)
(0.322445 0 -0.0220019)
(0.304526 0 -0.0199859)
(0.284161 0 -0.0180231)
(0.261269 0 -0.0160929)
(0.235764 0 -0.0141733)
(0.207553 0 -0.0122406)
(0.176542 0 -0.0102684)
(0.142637 0 -0.00822742)
(0.105741 0 -0.00608365)
(0.0657732 0 -0.00379863)
(0.0224895 0 -0.0013165)
(0.0524723 0 -0.0290686)
(0.0752332 0 -0.0366056)
(0.115171 0 -0.0468685)
(0.170707 0 -0.0576568)
(0.230203 0 -0.0658497)
(0.280855 0 -0.0699718)
(0.318407 0 -0.0708325)
(0.344655 0 -0.0697062)
(0.362421 0 -0.0672636)
(0.374041 0 -0.0640362)
(0.381121 0 -0.0603793)
(0.384678 0 -0.0566127)
(0.385291 0 -0.052864)
(0.383303 0 -0.049208)
(0.378916 0 -0.0456841)
(0.372243 0 -0.0423092)
(0.363335 0 -0.039086)
(0.352199 0 -0.0360074)
(0.338815 0 -0.0330602)
(0.323139 0 -0.0302258)
(0.30511 0 -0.0274819)
(0.284654 0 -0.0248032)
(0.261687 0 -0.0221626)
(0.236118 0 -0.0195306)
(0.207852 0 -0.0168755)
(0.176792 0 -0.014162)
(0.142841 0 -0.0113501)
(0.1059 0 -0.00839395)
(0.0658813 0 -0.00524124)
(0.022532 0 -0.00181603)
(0.0785871 0 -0.0400971)
(0.105398 0 -0.0497748)
(0.148008 0 -0.0624822)
(0.20221 0 -0.0749627)
(0.256403 0 -0.0838255)
(0.300676 0 -0.0879262)
(0.333034 0 -0.0884282)
(0.355492 0 -0.0866862)
(0.370586 0 -0.0835423)
(0.380324 0 -0.0795114)
(0.386082 0 -0.0750713)
(0.388659 0 -0.0704947)
(0.388523 0 -0.0659322)
(0.385948 0 -0.0614713)
(0.381095 0 -0.0571584)
(0.374044 0 -0.0530146)
(0.364828 0 -0.0490438)
(0.35344 0 -0.045239)
(0.339848 0 -0.0415849)
(0.324001 0 -0.0380606)
(0.305832 0 -0.0346385)
(0.28526 0 -0.0312884)
(0.262197 0 -0.0279773)
(0.236546 0 -0.0246691)
(0.208209 0 -0.0213253)
(0.177088 0 -0.0179025)
(0.143081 0 -0.0143511)
(0.106083 0 -0.0106142)
(0.0660037 0 -0.00662712)
(0.0225791 0 -0.00229539)
(0.109505 0 -0.0527473)
(0.140343 0 -0.064539)
(0.185245 0 -0.079317)
(0.237168 0 -0.092705)
(0.285147 0 -0.101369)
(0.32262 0 -0.104946)
(0.34945 0 -0.104844)
(0.367801 0 -0.102361)
(0.379953 0 -0.0984403)
(0.387626 0 -0.0937048)
(0.391887 0 -0.0885658)
(0.393336 0 -0.0832843)
(0.392326 0 -0.0780164)
(0.389062 0 -0.0728556)
(0.383656 0 -0.0678516)
(0.376158 0 -0.0630281)
(0.366575 0 -0.0583903)
(0.354886 0 -0.053931)
(0.341046 0 -0.0496344)
(0.324995 0 -0.0454782)
(0.306659 0 -0.0414298)
(0.28595 0 -0.0374546)
(0.262772 0 -0.0335149)
(0.237024 0 -0.0295684)
(0.208604 0 -0.0255716)
(0.177411 0 -0.021474)
(0.143338 0 -0.0172172)
(0.106278 0 -0.0127344)
(0.0661325 0 -0.00794977)
(0.022628 0 -0.00275225)
(0.144431 0 -0.0670159)
(0.179124 0 -0.0808856)
(0.225589 0 -0.0972316)
(0.274057 0 -0.110653)
(0.315058 0 -0.11833)
(0.345551 0 -0.120898)
(0.366772 0 -0.119912)
(0.380952 0 -0.116633)
(0.390114 0 -0.111982)
(0.39565 0 -0.106603)
(0.398316 0 -0.100852)
(0.398539 0 -0.0949675)
(0.396566 0 -0.0890991)
(0.392536 0 -0.0833412)
(0.386512 0 -0.0777423)
(0.378511 0 -0.0723272)
(0.368516 0 -0.0671021)
(0.356485 0 -0.0620601)
(0.342363 0 -0.0571853)
(0.326081 0 -0.052457)
(0.307557 0 -0.047835)
(0.286693 0 -0.0432823)
(0.263389 0 -0.0387574)
(0.237532 0 -0.0342115)
(0.209017 0 -0.0295991)
(0.177743 0 -0.0248631)
(0.1436 0 -0.0199372)
(0.106474 0 -0.014746)
(0.0662612 0 -0.00920386)
(0.0226766 0 -0.00318474)
(0.182657 0 -0.082869)
(0.22095 0 -0.0987311)
(0.267814 0 -0.115921)
(0.311333 0 -0.128359)
(0.344869 0 -0.13442)
(0.36846 0 -0.135612)
(0.384215 0 -0.133545)
(0.394385 0 -0.12943)
(0.40069 0 -0.124142)
(0.4041 0 -0.118202)
(0.405138 0 -0.111931)
(0.404087 0 -0.105543)
(0.401101 0 -0.0991748)
(0.396257 0 -0.0929203)
(0.389571 0 -0.0868198)
(0.381027 0 -0.0808987)
(0.370584 0 -0.0751644)
(0.358183 0 -0.0696101)
(0.34375 0 -0.0642197)
(0.327219 0 -0.0589812)
(0.308491 0 -0.0538384)
(0.28746 0 -0.0487561)
(0.264022 0 -0.0436912)
(0.238046 0 -0.0385841)
(0.209427 0 -0.0333949)
(0.178068 0 -0.0280588)
(0.143852 0 -0.0225021)
(0.10666 0 -0.016642)
(0.0663847 0 -0.0103853)
(0.022724 0 -0.00359152)
(0.223647 0 -0.100287)
(0.265151 0 -0.117924)
(0.310675 0 -0.134928)
(0.347656 0 -0.14533)
(0.373538 0 -0.149314)
(0.390503 0 -0.148898)
(0.401184 0 -0.145679)
(0.407711 0 -0.140791)
(0.411335 0 -0.134928)
(0.412696 0 -0.128509)
(0.412131 0 -0.121814)
(0.409802 0 -0.115019)
(0.405783 0 -0.108247)
(0.400107 0 -0.101597)
(0.392736 0 -0.0950848)
(0.383627 0 -0.0887398)
(0.372716 0 -0.0825717)
(0.359925 0 -0.0765734)
(0.345158 0 -0.0707242)
(0.328354 0 -0.0650116)
(0.309418 0 -0.0594005)
(0.28821 0 -0.0538382)
(0.264641 0 -0.0482844)
(0.238549 0 -0.0426744)
(0.209812 0 -0.036949)
(0.178367 0 -0.0310528)
(0.14408 0 -0.024905)
(0.106826 0 -0.0184172)
(0.0665008 0 -0.0114912)
(0.0227718 0 -0.00397193)
(0.267077 0 -0.119242)
(0.311032 0 -0.138166)
(0.352829 0 -0.153615)
(0.38194 0 -0.161102)
(0.400199 0 -0.162696)
(0.411027 0 -0.16058)
(0.417267 0 -0.156288)
(0.420565 0 -0.150703)
(0.421739 0 -0.144347)
(0.421178 0 -0.13754)
(0.419084 0 -0.130522)
(0.41551 0 -0.123418)
(0.41047 0 -0.116328)
(0.403948 0 -0.109343)
(0.395892 0 -0.102502)
(0.386213 0 -0.0958122)
(0.374829 0 -0.0892839)
(0.361646 0 -0.0829112)
(0.346561 0 -0.0766749)
(0.329481 0 -0.0705459)
(0.310305 0 -0.0645111)
(0.288906 0 -0.0585161)
(0.265168 0 -0.0525123)
(0.238955 0 -0.0464443)
(0.210138 0 -0.0402349)
(0.178617 0 -0.0338232)
(0.144265 0 -0.0271283)
(0.106958 0 -0.0200584)
(0.0666099 0 -0.0125157)
(0.0228326 0 -0.00432727)
(0.312778 0 -0.139657)
(0.357592 0 -0.158879)
(0.392723 0 -0.171156)
(0.413155 0 -0.175152)
(0.424088 0 -0.174213)
(0.429661 0 -0.170551)
(0.432163 0 -0.165328)
(0.43265 0 -0.159153)
(0.431639 0 -0.152415)
(0.429312 0 -0.145318)
(0.425769 0 -0.138046)
(0.421019 0 -0.130723)
(0.415011 0 -0.123413)
(0.407676 0 -0.116177)
(0.398944 0 -0.109076)
(0.388706 0 -0.102115)
(0.376856 0 -0.095298)
(0.363284 0 -0.0886181)
(0.347878 0 -0.0820574)
(0.330529 0 -0.0755899)
(0.311123 0 -0.0691891)
(0.289533 0 -0.0628095)
(0.265635 0 -0.0564005)
(0.239298 0 -0.0499036)
(0.210392 0 -0.0432487)
(0.1788 0 -0.0363646)
(0.144392 0 -0.0291675)
(0.107036 0 -0.0215615)
(0.0666197 0 -0.0134409)
(0.0228156 0 -0.00463957)
(0.360571 0 -0.161308)
(0.403127 0 -0.179021)
(0.428574 0 -0.186544)
(0.440149 0 -0.186834)
(0.444874 0 -0.183657)
(0.446245 0 -0.178727)
(0.445648 0 -0.172763)
(0.443716 0 -0.166138)
(0.44075 0 -0.159111)
(0.43685 0 -0.151841)
(0.431999 0 -0.144416)
(0.426168 0 -0.136953)
(0.419263 0 -0.129508)
(0.411181 0 -0.122127)
(0.401816 0 -0.114852)
(0.391045 0 -0.107695)
(0.378746 0 -0.100657)
(0.364797 0 -0.0937329)
(0.349077 0 -0.0869052)
(0.331464 0 -0.0801493)
(0.311835 0 -0.0734342)
(0.290062 0 -0.0667173)
(0.266014 0 -0.059948)
(0.239559 0 -0.0530671)
(0.210567 0 -0.0460062)
(0.17891 0 -0.0386902)
(0.144455 0 -0.031033)
(0.107067 0 -0.0229358)
(0.06662 0 -0.0142888)
(0.0228031 0 -0.00492546)
(0.409724 0 -0.183569)
(0.44487 0 -0.196949)
(0.458508 0 -0.198686)
(0.462626 0 -0.195775)
(0.462618 0 -0.190871)
(0.460589 0 -0.184977)
(0.457422 0 -0.178504)
(0.453471 0 -0.171629)
(0.448847 0 -0.164463)
(0.44359 0 -0.157122)
(0.437621 0 -0.149668)
(0.430844 0 -0.142171)
(0.423138 0 -0.134679)
(0.414375 0 -0.127231)
(0.404427 0 -0.119857)
(0.39316 0 -0.112571)
(0.38044 0 -0.105377)
(0.366136 0 -0.0982671)
(0.350116 0 -0.0912267)
(0.332251 0 -0.0842317)
(0.312412 0 -0.0772506)
(0.290466 0 -0.0702421)
(0.266279 0 -0.0631561)
(0.239717 0 -0.0559338)
(0.210647 0 -0.0485074)
(0.178935 0 -0.0408002)
(0.144446 0 -0.0327246)
(0.107041 0 -0.0241805)
(0.0665903 0 -0.0150566)
(0.0227868 0 -0.00518485)
(0.457529 0 -0.204598)
(0.478968 0 -0.210387)
(0.482515 0 -0.207044)
(0.480889 0 -0.201666)
(0.477154 0 -0.195618)
(0.472444 0 -0.189209)
(0.467243 0 -0.182533)
(0.46169 0 -0.17562)
(0.455773 0 -0.168505)
(0.449422 0 -0.161238)
(0.442522 0 -0.153863)
(0.434942 0 -0.146427)
(0.426541 0 -0.13897)
(0.417178 0 -0.131527)
(0.406709 0 -0.124123)
(0.394993 0 -0.116772)
(0.381888 0 -0.109478)
(0.367255 0 -0.102237)
(0.350957 0 -0.0950348)
(0.332859 0 -0.0878481)
(0.312826 0 -0.0806463)
(0.290722 0 -0.0733896)
(0.26641 0 -0.0660289)
(0.239754 0 -0.0585063)
(0.210618 0 -0.0507544)
(0.178865 0 -0.0426963)
(0.144358 0 -0.034244)
(0.106954 0 -0.025297)
(0.066523 0 -0.0157441)
(0.0227588 0 -0.00541662)
(0.496338 0 -0.219598)
(0.505653 0 -0.217823)
(0.500756 0 -0.210507)
(0.494665 0 -0.203984)
(0.488173 0 -0.197707)
(0.481605 0 -0.191391)
(0.475005 0 -0.184907)
(0.468319 0 -0.178216)
(0.461442 0 -0.171325)
(0.454254 0 -0.164263)
(0.446616 0 -0.157067)
(0.438381 0 -0.149777)
(0.4294 0 -0.14243)
(0.419524 0 -0.135058)
(0.408604 0 -0.127685)
(0.396493 0 -0.120325)
(0.383045 0 -0.112986)
(0.368117 0 -0.105663)
(0.351568 0 -0.0983452)
(0.33326 0 -0.0910111)
(0.313052 0 -0.0836313)
(0.290808 0 -0.0761676)
(0.266388 0 -0.0685724)
(0.239655 0 -0.0607889)
(0.210468 0 -0.0527507)
(0.178691 0 -0.0443814)
(0.144183 0 -0.0355936)
(0.106801 0 -0.0262873)
(0.0664136 0 -0.0163524)
(0.022716 0 -0.00562081)
(0.0140453 0 -0.00190872)
(0.0402073 0 -0.00547696)
(0.0628333 0 -0.00862845)
(0.0823862 0 -0.0114571)
(0.0993002 0 -0.0140342)
(0.113948 0 -0.0164157)
(0.126673 0 -0.0186464)
(0.137774 0 -0.0207633)
(0.147516 0 -0.0227933)
(0.156135 0 -0.0247561)
(0.163867 0 -0.0266782)
(0.170931 0 -0.0285799)
(0.177535 0 -0.0304803)
(0.183894 0 -0.032406)
(0.190196 0 -0.0343729)
(0.196703 0 -0.0364289)
(0.203643 0 -0.0386115)
(0.211308 0 -0.0409852)
(0.21998 0 -0.0436192)
(0.230018 0 -0.0466167)
(0.241845 0 -0.0501165)
(0.255928 0 -0.054294)
(0.272874 0 -0.0594012)
(0.293386 0 -0.0657701)
(0.318474 0 -0.0739143)
(0.349124 0 -0.0844458)
(0.386316 0 -0.09816)
(0.430573 0 -0.116042)
(0.479288 0 -0.138546)
(0.524375 0 -0.165407)
(0.0142264 0 -0.00201991)
(0.0407454 0 -0.00579922)
(0.0637324 0 -0.00914354)
(0.083653 0 -0.0121507)
(0.100949 0 -0.0148976)
(0.116005 0 -0.0174441)
(0.12917 0 -0.0198381)
(0.140755 0 -0.0221219)
(0.151014 0 -0.0243223)
(0.160211 0 -0.0264685)
(0.168574 0 -0.0285846)
(0.176326 0 -0.0306967)
(0.18366 0 -0.0328197)
(0.190816 0 -0.0349912)
(0.198008 0 -0.0372412)
(0.205478 0 -0.0396134)
(0.213459 0 -0.042154)
(0.222247 0 -0.0449355)
(0.23213 0 -0.0480375)
(0.243453 0 -0.0515699)
(0.256636 0 -0.0556841)
(0.272126 0 -0.0605645)
(0.290459 0 -0.0664596)
(0.312376 0 -0.0737436)
(0.338517 0 -0.0828242)
(0.369517 0 -0.0942224)
(0.405859 0 -0.108594)
(0.44666 0 -0.126329)
(0.487645 0 -0.146604)
(0.520489 0 -0.166218)
(0.0144104 0 -0.00212877)
(0.0412925 0 -0.00611526)
(0.0646486 0 -0.00964966)
(0.0849514 0 -0.0128352)
(0.102644 0 -0.0157523)
(0.118116 0 -0.0184646)
(0.131743 0 -0.0210279)
(0.143827 0 -0.0234832)
(0.154624 0 -0.0258601)
(0.164404 0 -0.0281942)
(0.173386 0 -0.0305049)
(0.181807 0 -0.0328267)
(0.189886 0 -0.0351858)
(0.197839 0 -0.0376142)
(0.205891 0 -0.0401505)
(0.214276 0 -0.0428402)
(0.223245 0 -0.0457414)
(0.23308 0 -0.0489282)
(0.244045 0 -0.0524809)
(0.256491 0 -0.0565216)
(0.270824 0 -0.0612109)
(0.287395 0 -0.066712)
(0.306766 0 -0.0733019)
(0.32937 0 -0.0812571)
(0.355606 0 -0.0909119)
(0.385806 0 -0.102683)
(0.419566 0 -0.116822)
(0.455035 0 -0.133106)
(0.487798 0 -0.150085)
(0.512827 0 -0.165704)
(0.0145964 0 -0.00223467)
(0.0418431 0 -0.00642291)
(0.065579 0 -0.0101459)
(0.0862794 0 -0.0135093)
(0.104381 0 -0.0165968)
(0.120292 0 -0.0194778)
(0.134387 0 -0.0222111)
(0.146964 0 -0.0248368)
(0.158294 0 -0.0273903)
(0.168646 0 -0.0299097)
(0.178259 0 -0.032424)
(0.187358 0 -0.0349635)
(0.196162 0 -0.0375608)
(0.204866 0 -0.0402415)
(0.213739 0 -0.0430635)
(0.222995 0 -0.0460712)
(0.232868 0 -0.0493214)
(0.24363 0 -0.0528933)
(0.255539 0 -0.0568707)
(0.268946 0 -0.0613871)
(0.284131 0 -0.0665656)
(0.301482 0 -0.0725976)
(0.321331 0 -0.0796827)
(0.343941 0 -0.0880402)
(0.369554 0 -0.0979462)
(0.397911 0 -0.109545)
(0.428063 0 -0.122763)
(0.457855 0 -0.137)
(0.48408 0 -0.151038)
(0.50393 0 -0.163738)
(0.0147868 0 -0.00233772)
(0.0424217 0 -0.00672518)
(0.0665395 0 -0.0106322)
(0.0876251 0 -0.0141678)
(0.106141 0 -0.0174237)
(0.122491 0 -0.0204709)
(0.137047 0 -0.023369)
(0.150119 0 -0.0261652)
(0.161995 0 -0.0289005)
(0.172931 0 -0.0316105)
(0.183162 0 -0.0343281)
(0.1929 0 -0.037079)
(0.202383 0 -0.0399056)
(0.211826 0 -0.0428444)
(0.221468 0 -0.0459465)
(0.231506 0 -0.0492546)
(0.242191 0 -0.0528376)
(0.253761 0 -0.0567684)
(0.266461 0 -0.0611337)
(0.280575 0 -0.0660488)
(0.296346 0 -0.0716318)
(0.314055 0 -0.0780389)
(0.333886 0 -0.0854182)
(0.356015 0 -0.093954)
(0.380273 0 -0.103733)
(0.406102 0 -0.114721)
(0.432373 0 -0.126653)
(0.457214 0 -0.138884)
(0.478612 0 -0.150612)
(0.494919 0 -0.161117)
(0.014977 0 -0.00243653)
(0.0429944 0 -0.00701474)
(0.0674891 0 -0.0110977)
(0.0889652 0 -0.0148007)
(0.1079 0 -0.0182214)
(0.124685 0 -0.0214309)
(0.139713 0 -0.0244961)
(0.153296 0 -0.0274653)
(0.165706 0 -0.0303801)
(0.177193 0 -0.0332729)
(0.188006 0 -0.0361843)
(0.198372 0 -0.0391485)
(0.208515 0 -0.0422042)
(0.218633 0 -0.0453877)
(0.228965 0 -0.0487521)
(0.239706 0 -0.0523438)
(0.251086 0 -0.0562303)
(0.263311 0 -0.0604773)
(0.276604 0 -0.0651684)
(0.291184 0 -0.0704004)
(0.307241 0 -0.0762757)
(0.324933 0 -0.082905)
(0.344404 0 -0.090419)
(0.365523 0 -0.0988636)
(0.387953 0 -0.108224)
(0.411049 0 -0.118369)
(0.433685 0 -0.128942)
(0.454533 0 -0.139444)
(0.472354 0 -0.14936)
(0.486131 0 -0.158186)
(0.0151617 0 -0.00252918)
(0.0435525 0 -0.00728723)
(0.0684173 0 -0.0115374)
(0.0902911 0 -0.015404)
(0.10965 0 -0.0189858)
(0.126882 0 -0.0223562)
(0.142376 0 -0.0255844)
(0.156439 0 -0.0287172)
(0.169355 0 -0.0318016)
(0.181388 0 -0.0348773)
(0.192775 0 -0.0379823)
(0.203729 0 -0.0411502)
(0.214466 0 -0.0444192)
(0.225206 0 -0.0478351)
(0.236152 0 -0.051443)
(0.247494 0 -0.0552915)
(0.259431 0 -0.0594389)
(0.27215 0 -0.0639502)
(0.285827 0 -0.0688937)
(0.300644 0 -0.0743568)
(0.316689 0 -0.0804012)
(0.334107 0 -0.0871319)
(0.352829 0 -0.0945859)
(0.372592 0 -0.102733)
(0.393029 0 -0.111513)
(0.413431 0 -0.120712)
(0.432927 0 -0.130022)
(0.450631 0 -0.139095)
(0.465741 0 -0.14757)
(0.477623 0 -0.155091)
(0.0153414 0 -0.00261531)
(0.0440973 0 -0.00754145)
(0.0693478 0 -0.011953)
(0.0916148 0 -0.0159754)
(0.111371 0 -0.0197074)
(0.129034 0 -0.0232299)
(0.144973 0 -0.026611)
(0.159515 0 -0.029905)
(0.17294 0 -0.033158)
(0.185489 0 -0.0364075)
(0.197396 0 -0.0396912)
(0.20889 0 -0.0430494)
(0.22018 0 -0.0465207)
(0.231467 0 -0.0501482)
(0.242936 0 -0.0539733)
(0.254766 0 -0.0580428)
(0.267125 0 -0.0624075)
(0.280168 0 -0.0671217)
(0.29406 0 -0.0722538)
(0.30887 0 -0.0778458)
(0.324685 0 -0.0839596)
(0.34155 0 -0.090653)
(0.35926 0 -0.097894)
(0.377517 0 -0.105619)
(0.395916 0 -0.113716)
(0.413868 0 -0.121985)
(0.430758 0 -0.130196)
(0.445966 0 -0.138088)
(0.45897 0 -0.145403)
(0.469364 0 -0.151888)
(0.0155131 0 -0.00269356)
(0.0446169 0 -0.00777299)
(0.0702368 0 -0.0123328)
(0.092887 0 -0.0164993)
(0.11303 0 -0.0203717)
(0.131118 0 -0.02404)
(0.147511 0 -0.0275711)
(0.162512 0 -0.031017)
(0.176396 0 -0.0344233)
(0.189429 0 -0.0378352)
(0.201836 0 -0.0412903)
(0.213814 0 -0.0448217)
(0.225589 0 -0.0484749)
(0.237342 0 -0.0522877)
(0.249238 0 -0.0562983)
(0.261435 0 -0.0605476)
(0.274082 0 -0.0650805)
(0.287306 0 -0.0699428)
(0.301219 0 -0.0751828)
(0.315834 0 -0.0808191)
(0.331229 0 -0.0869061)
(0.347332 0 -0.0934465)
(0.363874 0 -0.100366)
(0.380557 0 -0.107581)
(0.397032 0 -0.114979)
(0.412865 0 -0.122403)
(0.427597 0 -0.129666)
(0.440797 0 -0.136575)
(0.452122 0 -0.142944)
(0.461304 0 -0.14859)
(0.0156728 0 -0.00276209)
(0.0450983 0 -0.00797627)
(0.071073 0 -0.0126704)
(0.094104 0 -0.0169705)
(0.114641 0 -0.0209763)
(0.133135 0 -0.0247787)
(0.149937 0 -0.0284434)
(0.165371 0 -0.0320292)
(0.179709 0 -0.0355825)
(0.193185 0 -0.0391421)
(0.206022 0 -0.042746)
(0.21844 0 -0.0464348)
(0.230629 0 -0.0502456)
(0.242761 0 -0.0542141)
(0.254987 0 -0.0583752)
(0.267435 0 -0.0627603)
(0.280228 0 -0.0674061)
(0.293509 0 -0.0723635)
(0.307271 0 -0.0776348)
(0.321556 0 -0.0832465)
(0.336371 0 -0.0892193)
(0.351545 0 -0.0955052)
(0.366832 0 -0.102026)
(0.382002 0 -0.108709)
(0.396761 0 -0.11545)
(0.410777 0 -0.122118)
(0.423714 0 -0.128567)
(0.435272 0 -0.134651)
(0.445224 0 -0.140238)
(0.453392 0 -0.145192)
(0.0158246 0 -0.00282083)
(0.0455754 0 -0.00815504)
(0.0718792 0 -0.0129656)
(0.0952486 0 -0.0173799)
(0.116151 0 -0.0215029)
(0.135034 0 -0.0254262)
(0.152248 0 -0.0292172)
(0.168085 0 -0.0329287)
(0.182813 0 -0.0366066)