/*--------------------------------*- C++ -*----------------------------------*\
| =========                 |                                                 |
| \\      /  F ield         | OpenFOAM: The Open Source CFD Toolbox           |
|  \\    /   O peration     | Version:  4.1                                   |
|   \\  /    A nd           | Web:      www.OpenFOAM.org                      |
|    \\/     M anipulation  |                                                 |
\*---------------------------------------------------------------------------*/
FoamFile
{
    version     2.0;
    format      ascii;
    class       volScalarField;
    location    "0.8";
    object      gradTx;
}
// * * * * * * * * * * * * * * * * * * * * * * * * * * * * * * * * * * * * * //

dimensions      [0 -1 0 1 0 0 0];

internalField   nonuniform List<scalar> 
512
(
0.0122276
0.0346718
0.0518534
0.0623652
0.0664993
0.0655671
0.0611903
0.054806
0.0475513
0.0401903
0.0331835
0.0267694
0.0210316
0.0159512
0.0114443
0.00738837
0.00363895
4.06389e-05
-0.00356461
-0.00732941
-0.0113898
-0.0158473
-0.0207409
-0.0260036
-0.0314036
-0.0364727
-0.0404441
-0.0422419
-0.0406045
-0.0344268
-0.0233366
-0.00829183
0.0371896
0.105337
0.157237
0.188696
0.200775
0.197576
0.184081
0.16465
0.142694
0.120493
0.0994107
0.0801465
0.0629371
0.0477157
0.0342248
0.0220922
0.0108817
0.00012531
-0.0106532
-0.0219146
-0.0340712
-0.047435
-0.0621333
-0.0779802
-0.0942979
-0.109698
-0.121882
-0.127592
-0.122956
-0.104516
-0.071005
-0.0252633
0.063722
0.180077
0.267757
0.319894
0.3389
0.332199
0.308483
0.275166
0.237935
0.200545
0.165209
0.133032
0.104365
0.0790645
0.0566795
0.0365762
0.0180187
0.000220298
-0.0176193
-0.0362768
-0.0564542
-0.078695
-0.103247
-0.12985
-0.157436
-0.183745
-0.204959
-0.215551
-0.208783
-0.178395
-0.121748
-0.0434377
0.0930511
0.262
0.387206
0.459416
0.483494
0.471146
0.435332
0.386724
0.333276
0.280134
0.230259
0.185077
0.144984
0.109712
0.0785865
0.0506916
0.0249787
0.000333348
-0.0243777
-0.0502604
-0.0783272
-0.109387
-0.143863
-0.181495
-0.220918
-0.259097
-0.290728
-0.30789
-0.300556
-0.258878
-0.177927
-0.063757
0.12671
0.354875
0.519958
0.611036
0.63725
0.616057
0.565445
0.499578
0.428622
0.358975
0.294195
0.235901
0.184442
0.139361
0.099717
0.0642855
0.0316889
0.000473238
-0.0308394
-0.0637004
-0.0994603
-0.139241
-0.18371
-0.23272
-0.284748
-0.33613
-0.380166
-0.406412
-0.400975
-0.349229
-0.242428
-0.0874078
0.166742
0.463536
0.671277
0.778959
0.802927
0.768446
0.699456
0.613807
0.523744
0.436687
0.356584
0.285082
0.222362
0.167699
0.119833
0.0772007
0.0380751
0.000650076
-0.0369095
-0.0764189
-0.119599
-0.167941
-0.22245
-0.283228
-0.348787
-0.415059
-0.47412
-0.512928
-0.513044
-0.453404
-0.318993
-0.115991
0.216032
0.594483
0.847687
0.967926
0.983302
0.929616
0.837734
0.729264
0.618237
0.512768
0.416915
0.332147
0.258337
0.194396
0.138688
0.089275
0.0440613
0.000875395
-0.0424871
-0.0882242
-0.138462
-0.195122
-0.259658
-0.332587
-0.412707
-0.495864
-0.573221
-0.629204
-0.640136
-0.576337
-0.412702
-0.151792
0.278835
0.756776
1.05743
1.18326
1.18105
1.10052
0.980286
0.845503
0.711485
0.586574
0.474585
0.376569
0.291925
0.219103
0.156025
0.100341
0.0495697
0.00116191
-0.0474656
-0.0989098
-0.155736
-0.220362
-0.294807
-0.380203
-0.475937
-0.578205
-0.677763
-0.756842
-0.786003
-0.724293
-0.530716
-0.198226
0.361707
0.963444
1.31098
1.43078
1.39851
1.28156
1.12663
0.961717
0.802624
0.657298
0.528892
0.417759
0.322654
0.241453
0.171575
0.110228
0.0545206
0.00152277
-0.0517337
-0.108257
-0.17108
-0.243181
-0.327266
-0.4253
-0.537617
-0.661322
-0.787536
-0.89707
-0.954686
-0.905283
-0.683447
-0.26062
0.475159
1.23375
1.62159
1.71653
1.63732
1.47236
1.27566
1.07667
0.890511
0.723965
0.579032
0.455071
0.350017
0.261062
0.185066
0.118759
0.0588321
0.00197019
-0.0551786
-0.116036
-0.184126
-0.263042
-0.356293
-0.466899
-0.596544
-0.743924
-0.901605
-1.0504
-1.15023
-1.12945
-0.886433
-0.347604
0.636713
1.59686
2.00558
2.04606
1.89777
1.67138
1.4255
1.18863
0.97371
0.785424
0.624099
0.487803
0.373477
0.277533
0.196216
0.125755
0.0624191
0.0025133
-0.057689
-0.122017
-0.194492
-0.279361
-0.381044
-0.503823
-0.651142
-0.824075
-1.01803
-1.21609
-1.37604
-1.40927
-1.16342
-0.473693
0.876737
2.098
2.48182
2.42302
2.178
1.87558
1.57334
1.29536
1.05049
0.840358
0.663096
0.515203
0.392478
0.290458
0.204738
0.131035
0.0651931
0.00315575
-0.0591612
-0.125972
-0.201787
-0.291525
-0.400591
-0.534706
-0.699452
-0.899107
-1.13359
-1.39146
-1.63365
-1.75897
-1.55145
-0.664231
1.24991
2.80871
3.06895
2.84679
2.47286
2.08008
1.71543
1.39409
1.11884
0.887309
0.694954
0.536485
0.406447
0.299425
0.210349
0.134418
0.0670622
0.00389366
-0.0595038
-0.127689
-0.205634
-0.298911
-0.413951
-0.558033
-0.739162
-0.965578
-1.24346
-1.57089
-1.92062
-2.19204
-2.10952
-0.965108
1.85834
3.8443
3.77705
3.30878
2.77277
2.2779
1.84703
1.48162
1.17655
0.924722
0.718563
0.550847
0.414819
0.304031
0.212771
0.135731
0.067933
0.00471517
-0.0586441
-0.126982
-0.205684
-0.300914
-0.420135
-0.572209
-0.767687
-1.01934
-1.34112
-1.74493
-2.22734
-2.71381
-2.93317
-1.46243
2.8994
5.39348
4.58592
3.78808
3.06278
2.46013
1.96264
1.55442
1.22127
0.951006
0.732808
0.557497
0.417053
0.303895
0.211746
0.134811
0.0677119
0.00560106
-0.0565335
-0.123699
-0.201641
-0.296983
-0.418197
-0.575654
-0.782315
-1.05574
-1.41847
-1.89951
-2.53326
-3.30261
-4.17946
-2.32326
4.76667
7.76832
5.39282
4.2497
3.32259
2.6165
2.05636
1.60885
1.25061
0.964578
0.736594
0.555649
0.412647
0.29865
0.207028
0.131513
0.0662967
0.0065208
-0.0531607
-0.117741
-0.193289
-0.286651
-0.407296
-0.566925
-0.780407
-1.07
-1.46645
-2.01616
-2.80553
-3.86479
-6.10918
-3.88172
)
;

boundaryField
{
    left
    {
        type            calculated;
        value           uniform 0;
    }
    right
    {
        type            calculated;
        value           uniform 0;
    }
    interface
    {
        type            calculated;
        value           nonuniform List<scalar> 
32
(
4.76667
7.76832
5.39282
4.2497
3.32259
2.6165
2.05636
1.60885
1.25061
0.964578
0.736594
0.555649
0.412647
0.29865
0.207028
0.131513
0.0662967
0.0065208
-0.0531607
-0.117741
-0.193289
-0.286651
-0.407296
-0.566925
-0.780407
-1.07
-1.46645
-2.01616
-2.80553
-3.86479
-6.10918
-3.88172
)
;
    }
    bottom
    {
        type            calculated;
        value           nonuniform List<scalar> 
32
(
0.0122276
0.0346718
0.0518534
0.0623652
0.0664993
0.0655671
0.0611903
0.054806
0.0475513
0.0401903
0.0331835
0.0267694
0.0210316
0.0159512
0.0114443
0.00738837
0.00363895
4.06389e-05
-0.00356461
-0.00732941
-0.0113898
-0.0158473
-0.0207409
-0.0260036
-0.0314036
-0.0364727
-0.0404441
-0.0422419
-0.0406045
-0.0344268
-0.0233366
-0.00829183
)
;
    }
    defaultFaces
    {
        type            empty;
    }
}


// ************************************************************************* //
