/*--------------------------------*- C++ -*----------------------------------*\
| =========                 |                                                 |
| \\      /  F ield         | OpenFOAM: The Open Source CFD Toolbox           |
|  \\    /   O peration     | Version:  4.1                                   |
|   \\  /    A nd           | Web:      www.OpenFOAM.org                      |
|    \\/     M anipulation  |                                                 |
\*---------------------------------------------------------------------------*/
FoamFile
{
    version     2.0;
    format      ascii;
    class       volScalarField;
    location    "0.8";
    object      T;
}
// * * * * * * * * * * * * * * * * * * * * * * * * * * * * * * * * * * * * * //

dimensions      [0 0 0 1 0 0 0];

internalField   nonuniform List<scalar> 
512
(
309.788
309.788
309.79
309.792
309.794
309.796
309.798
309.8
309.801
309.803
309.804
309.805
309.805
309.806
309.806
309.807
309.807
309.807
309.807
309.807
309.806
309.806
309.805
309.805
309.804
309.803
309.801
309.8
309.799
309.798
309.797
309.796
309.363
309.365
309.369
309.375
309.381
309.387
309.393
309.399
309.404
309.408
309.411
309.414
309.416
309.418
309.419
309.42
309.421
309.421
309.421
309.42
309.419
309.418
309.416
309.414
309.411
309.408
309.405
309.401
309.397
309.393
309.39
309.388
308.937
308.941
308.948
308.958
308.968
308.979
308.989
308.998
309.006
309.013
309.019
309.024
309.027
309.03
309.032
309.034
309.034
309.035
309.034
309.034
309.032
309.03
309.027
309.024
309.019
309.014
309.008
309.001
308.994
308.988
308.983
308.98
308.511
308.516
308.527
308.541
308.556
308.571
308.585
308.598
308.609
308.619
308.627
308.633
308.638
308.642
308.645
308.647
308.648
308.649
308.649
308.647
308.645
308.642
308.639
308.633
308.627
308.62
308.611
308.601
308.592
308.583
308.576
308.572
308.083
308.091
308.105
308.123
308.143
308.163
308.182
308.198
308.213
308.225
308.235
308.244
308.25
308.255
308.259
308.261
308.263
308.263
308.263
308.261
308.259
308.255
308.25
308.244
308.236
308.226
308.215
308.202
308.189
308.177
308.167
308.162
307.653
307.663
307.682
307.705
307.731
307.756
307.779
307.799
307.817
307.832
307.844
307.854
307.862
307.868
307.873
307.876
307.877
307.878
307.878
307.876
307.873
307.868
307.862
307.854
307.845
307.833
307.819
307.803
307.787
307.771
307.758
307.751
307.221
307.234
307.258
307.287
307.318
307.349
307.376
307.401
307.422
307.44
307.454
307.466
307.475
307.482
307.487
307.491
307.493
307.493
307.493
307.491
307.487
307.482
307.475
307.466
307.454
307.44
307.423
307.404
307.384
307.364
307.348
307.338
306.785
306.803
306.832
306.869
306.906
306.942
306.975
307.004
307.028
307.048
307.065
307.078
307.088
307.096
307.102
307.106
307.108
307.109
307.108
307.106
307.102
307.096
307.088
307.078
307.065
307.048
307.028
307.006
306.981
306.957
306.936
306.923
306.345
306.368
306.406
306.45
306.495
306.537
306.575
306.608
306.635
306.658
306.676
306.691
306.702
306.711
306.717
306.722
306.724
306.725
306.724
306.722
306.718
306.711
306.702
306.691
306.676
306.657
306.635
306.608
306.579
306.548
306.522
306.506
305.9
305.93
305.977
306.031
306.084
306.133
306.176
306.213
306.244
306.269
306.289
306.305
306.317
306.327
306.334
306.338
306.341
306.342
306.341
306.339
306.334
306.327
306.318
306.305
306.288
306.268
306.242
306.211
306.176
306.139
306.106
306.084
305.447
305.487
305.547
305.613
305.675
305.731
305.78
305.82
305.854
305.881
305.903
305.92
305.933
305.943
305.951
305.956
305.959
305.96
305.959
305.956
305.951
305.944
305.934
305.92
305.902
305.879
305.851
305.816
305.775
305.73
305.687
305.657
304.985
305.04
305.116
305.195
305.268
305.331
305.385
305.429
305.466
305.495
305.518
305.536
305.55
305.561
305.569
305.574
305.577
305.578
305.577
305.574
305.569
305.562
305.551
305.536
305.517
305.493
305.461
305.422
305.374
305.32
305.264
305.223
304.509
304.587
304.685
304.779
304.862
304.933
304.992
305.041
305.08
305.111
305.135
305.154
305.169
305.179
305.187
305.193
305.196
305.197
305.196
305.193
305.188
305.18
305.169
305.154
305.134
305.108
305.074
305.03
304.976
304.91
304.839
304.779
304.014
304.13
304.254
304.366
304.461
304.539
304.603
304.655
304.696
304.728
304.754
304.773
304.788
304.799
304.807
304.812
304.815
304.817
304.816
304.813
304.808
304.8
304.789
304.774
304.753
304.726
304.69
304.642
304.58
304.503
304.411
304.319
303.49
303.671
303.827
303.957
304.063
304.149
304.217
304.271
304.314
304.348
304.374
304.394
304.409
304.42
304.428
304.433
304.436
304.437
304.436
304.434
304.429
304.421
304.41
304.395
304.374
304.346
304.308
304.257
304.189
304.099
303.983
303.838
302.92
303.218
303.406
303.555
303.671
303.763
303.835
303.891
303.935
303.97
303.996
304.016
304.031
304.041
304.049
304.054
304.057
304.059
304.058
304.055
304.05
304.043
304.033
304.018
303.997
303.969
303.93
303.877
303.804
303.702
303.563
303.32
)
;

boundaryField
{
    left
    {
        type            zeroGradient;
    }
    right
    {
        type            zeroGradient;
    }
    interface
    {
        type            fixedValue;
        value           nonuniform List<scalar> 
32
(
302.607
303.015
303.21
303.369
303.489
303.584
303.658
303.716
303.761
303.795
303.822
303.842
303.857
303.868
303.876
303.881
303.884
303.885
303.884
303.882
303.877
303.87
303.86
303.845
303.825
303.796
303.758
303.704
303.629
303.521
303.378
303.043
)
;
    }
    bottom
    {
        type            fixedValue;
        value           uniform 310;
    }
    defaultFaces
    {
        type            empty;
    }
}


// ************************************************************************* //
