/*--------------------------------*- C++ -*----------------------------------*\
| =========                 |                                                 |
| \\      /  F ield         | OpenFOAM: The Open Source CFD Toolbox           |
|  \\    /   O peration     | Version:  2006                                  |
|   \\  /    A nd           | Website:  www.openfoam.com                      |
|    \\/     M anipulation  |                                                 |
\*---------------------------------------------------------------------------*/
FoamFile
{
    version     2.0;
    format      ascii;
    class       volVectorField;
    location    "0.8";
    object      flux;
}
// * * * * * * * * * * * * * * * * * * * * * * * * * * * * * * * * * * * * * //

dimensions      [0 1 -1 1 0 0 0];


internalField   nonuniform List<vector> 
512
(
(0.0119358 -27.1689 0)
(0.0339024 -27.0724 0)
(0.0508486 -26.8952 0)
(0.0613668 -26.6624 0)
(0.0656656 -26.4011 0)
(0.0649608 -26.1346 0)
(0.0608055 -25.8797 0)
(0.0546013 -25.6471 0)
(0.0474763 -25.4424 0)
(0.0401989 -25.2672 0)
(0.03324 -25.1209 0)
(0.0268509 -25.0015 0)
(0.0211267 -24.9064 0)
(0.0160581 -24.8328 0)
(0.0115678 -24.7782 0)
(0.00753717 -24.7405 0)
(0.00382389 -24.7181 0)
(0.00027476 -24.71 0)
(-0.00326469 -24.7159 0)
(-0.00694157 -24.736 0)
(-0.010884 -24.7713 0)
(-0.0151831 -24.8229 0)
(-0.0198646 -24.8926 0)
(-0.0248488 -24.9817 0)
(-0.0298991 -25.0913 0)
(-0.0345618 -25.2211 0)
(-0.0381162 -25.3684 0)
(-0.0395768 -25.5271 0)
(-0.037816 -25.6866 0)
(-0.031881 -25.8317 0)
(-0.0215086 -25.9439 0)
(-0.00762092 -26.0056 0)
(0.0362879 -27.192 0)
(0.102968 -27.0916 0)
(0.154162 -26.9079 0)
(0.185662 -26.6684 0)
(0.198259 -26.4013 0)
(0.195759 -26.1304 0)
(0.182937 -25.8728 0)
(0.164049 -25.6388 0)
(0.142481 -25.4336 0)
(0.120527 -25.2585 0)
(0.0995864 -25.1127 0)
(0.080394 -24.994 0)
(0.0632231 -24.8995 0)
(0.0480356 -24.8265 0)
(0.0345933 -24.7725 0)
(0.022536 -24.7351 0)
(0.0114334 -24.7129 0)
(0.000823581 -24.7049 0)
(-0.00975901 -24.7107 0)
(-0.0207585 -24.7307 0)
(-0.0325641 -24.7656 0)
(-0.0454558 -24.8169 0)
(-0.0595209 -24.8861 0)
(-0.0745336 -24.975 0)
(-0.089799 -25.0847 0)
(-0.103968 -25.2152 0)
(-0.114879 -25.364 0)
(-0.119544 -25.5254 0)
(-0.1145 -25.6888 0)
(-0.0967602 -25.8385 0)
(-0.0654116 -25.9552 0)
(-0.0232045 -26.0196 0)
(0.0621272 -27.2391 0)
(0.17592 -27.1305 0)
(0.262427 -26.9336 0)
(0.314706 -26.6802 0)
(0.334657 -26.4012 0)
(0.329179 -26.1218 0)
(0.306614 -25.8588 0)
(0.274209 -25.6221 0)
(0.23762 -25.416 0)
(0.200634 -25.2412 0)
(0.165522 -25.0964 0)
(0.133455 -24.9789 0)
(0.104844 -24.8858 0)
(0.079594 -24.814 0)
(0.0572869 -24.761 0)
(0.0373072 -24.7244 0)
(0.0189276 -24.7026 0)
(0.00137055 -24.6948 0)
(-0.0161471 -24.7005 0)
(-0.0343749 -24.72 0)
(-0.0539762 -24.7542 0)
(-0.0754414 -24.8047 0)
(-0.0989491 -24.8732 0)
(-0.124167 -24.9616 0)
(-0.149988 -25.0715 0)
(-0.174207 -25.2032 0)
(-0.193223 -25.3551 0)
(-0.201961 -25.5218 0)
(-0.194381 -25.693 0)
(-0.165065 -25.8523 0)
(-0.112047 -25.9781 0)
(-0.0398455 -26.0485 0)
(0.090608 -27.3124 0)
(0.25571 -27.1903 0)
(0.379294 -26.9724 0)
(0.451875 -26.6972 0)
(0.477457 -26.4001 0)
(0.466944 -26.1079 0)
(0.432799 -25.8371 0)
(0.385481 -25.5964 0)
(0.33292 -25.3892 0)
(0.280324 -25.215 0)
(0.23074 -25.0718 0)
(0.185689 -24.9563 0)
(0.145658 -24.8652 0)
(0.110445 -24.7954 0)
(0.0794221 -24.7438 0)
(0.0516966 -24.7084 0)
(0.0262292 -24.6874 0)
(0.00191568 -24.6797 0)
(-0.0223545 -24.6852 0)
(-0.0476493 -24.7041 0)
(-0.0749283 -24.7373 0)
(-0.104927 -24.7865 0)
(-0.137965 -24.8538 0)
(-0.17367 -24.9413 0)
(-0.210602 -25.0512 0)
(-0.245779 -25.1847 0)
(-0.274176 -25.341 0)
(-0.288499 -25.5157 0)
(-0.279741 -25.6988 0)
(-0.239334 -25.873 0)
(-0.1635 -26.0137 0)
(-0.0583629 -26.0935 0)
(0.12316 -27.4152 0)
(0.345896 -27.2731 0)
(0.508969 -27.0246 0)
(0.60086 -26.7186 0)
(0.629339 -26.3967 0)
(0.610718 -26.0874 0)
(0.562345 -25.8065 0)
(0.498151 -25.5611 0)
(0.428314 -25.3528 0)
(0.359332 -25.1798 0)
(0.294885 -25.0388 0)
(0.236723 -24.9262 0)
(0.185313 -24.838 0)
(0.140289 -24.7706 0)
(0.100765 -24.7212 0)
(0.0655462 -24.6873 0)
(0.03326 -24.6672 0)
(0.00246067 -24.6599 0)
(-0.0283016 -24.6651 0)
(-0.0604302 -24.683 0)
(-0.0952092 -24.7149 0)
(-0.133667 -24.7623 0)
(-0.176336 -24.8278 0)
(-0.222895 -24.9139 0)
(-0.271694 -25.0236 0)
(-0.319092 -25.1591 0)
(-0.358701 -25.3209 0)
(-0.380867 -25.506 0)
(-0.373075 -25.7055 0)
(-0.322513 -25.9009 0)
(-0.222297 -26.0632 0)
(-0.0797731 -26.1573 0)
(0.161673 -27.5525 0)
(0.451018 -27.3813 0)
(0.656507 -27.0901 0)
(0.765791 -26.7429 0)
(0.79307 -26.3891 0)
(0.762058 -26.0587 0)
(0.695935 -25.7659 0)
(0.612341 -25.5154 0)
(0.5236 -25.3063 0)
(0.437298 -25.1352 0)
(0.357537 -24.9975 0)
(0.286135 -24.8886 0)
(0.22343 -24.804 0)
(0.168806 -24.74 0)
(0.121072 -24.6933 0)
(0.0786936 -24.6613 0)
(0.0399409 -24.6424 0)
(0.00300945 -24.6355 0)
(-0.0339025 -24.6402 0)
(-0.0725519 -24.657 0)
(-0.114582 -24.687 0)
(-0.161375 -24.7321 0)
(-0.213764 -24.7951 0)
(-0.271599 -24.8792 0)
(-0.333185 -24.9881 0)
(-0.394414 -25.1255 0)
(-0.447657 -25.2935 0)
(-0.480802 -25.4915 0)
(-0.477176 -25.7119 0)
(-0.418169 -25.9358 0)
(-0.291681 -26.1284 0)
(-0.105423 -26.2432 0)
(0.208772 -27.7318 0)
(0.57713 -27.5185 0)
(0.828177 -27.1686 0)
(0.951345 -26.7677 0)
(0.971463 -26.3745 0)
(0.922336 -26.0193 0)
(0.834 -25.7135 0)
(0.727945 -25.4579 0)
(0.618404 -25.249 0)
(0.51374 -25.0809 0)
(0.418195 -24.9475 0)
(0.333456 -24.8434 0)
(0.259598 -24.7635 0)
(0.19566 -24.7035 0)
(0.140088 -24.6601 0)
(0.0909714 -24.6306 0)
(0.0461921 -24.6131 0)
(0.00356859 -24.6066 0)
(-0.0390639 -24.6108 0)
(-0.0838332 -24.6261 0)
(-0.132778 -24.6538 0)
(-0.187708 -24.696 0)
(-0.249864 -24.7556 0)
(-0.319413 -24.8368 0)
(-0.394826 -24.9441 0)
(-0.471806 -25.0827 0)
(-0.541724 -25.2573 0)
(-0.59002 -25.47 0)
(-0.595211 -25.716 0)
(-0.530763 -25.9771 0)
(-0.376004 -26.2116 0)
(-0.13719 -26.3564 0)
(0.268283 -27.9634 0)
(0.732606 -27.6889 0)
(1.03191 -27.2588 0)
(1.16282 -26.7896 0)
(1.16728 -26.3494 0)
(1.09261 -25.9664 0)
(0.976627 -25.6472 0)
(0.84457 -25.3876 0)
(0.712139 -25.1801 0)
(0.588035 -25.0164 0)
(0.476267 -24.8888 0)
(0.378156 -24.7907 0)
(0.293371 -24.7164 0)
(0.220494 -24.6614 0)
(0.157545 -24.6219 0)
(0.102208 -24.5952 0)
(0.0519343 -24.5794 0)
(0.00414744 -24.5734 0)
(-0.0436855 -24.577 0)
(-0.0940765 -24.5906 0)
(-0.149495 -24.6155 0)
(-0.212263 -24.6539 0)
(-0.284159 -24.7092 0)
(-0.365818 -24.7862 0)
(-0.456148 -24.8906 0)
(-0.551054 -25.0294 0)
(-0.641298 -25.2102 0)
(-0.710117 -25.4387 0)
(-0.730753 -25.7149 0)
(-0.666004 -26.0237 0)
(-0.481327 -26.3159 0)
(-0.177813 -26.5044 0)
(0.345998 -28.2627 0)
(0.929396 -27.8972 0)
(1.27786 -27.3579 0)
(1.40609 -26.803 0)
(1.38303 -26.3087 0)
(1.27343 -25.8964 0)
(1.12344 -25.5646 0)
(0.961463 -25.3028 0)
(0.803967 -25.0989 0)
(0.659401 -24.9415 0)
(0.531059 -24.8212 0)
(0.41964 -24.7305 0)
(0.324264 -24.663 0)
(0.242926 -24.6137 0)
(0.173166 -24.5789 0)
(0.112228 -24.5555 0)
(0.0570889 -24.5416 0)
(0.00475771 -24.5362 0)
(-0.0476613 -24.5391 0)
(-0.10307 -24.5506 0)
(-0.164395 -24.5721 0)
(-0.234569 -24.6058 0)
(-0.316063 -24.6557 0)
(-0.410122 -24.7273 0)
(-0.516411 -24.827 0)
(-0.63157 -24.9641 0)
(-0.746344 -25.1495 0)
(-0.842375 -25.3939 0)
(-0.887745 -25.7041 0)
(-0.831297 -26.073 0)
(-0.616351 -26.4447 0)
(-0.231432 -26.6981 0)
(0.45103 -28.6525 0)
(1.18501 -28.148 0)
(1.57901 -27.4598 0)
(1.68741 -26.8003 0)
(1.62059 -26.2464 0)
(1.46463 -25.805 0)
(1.27344 -25.4634 0)
(1.07744 -25.2021 0)
(0.892761 -25.0046 0)
(0.726892 -24.8559 0)
(0.581777 -24.7446 0)
(0.457247 -24.6629 0)
(0.351762 -24.6034 0)
(0.262557 -24.5608 0)
(0.186655 -24.5314 0)
(0.120855 -24.5118 0)
(0.0615802 -24.5 0)
(0.00541233 -24.4953 0)
(-0.0508827 -24.4973 0)
(-0.110593 -24.5064 0)
(-0.177105 -24.524 0)
(-0.254085 -24.5521 0)
(-0.344883 -24.5952 0)
(-0.451446 -24.6596 0)
(-0.574553 -24.7524 0)
(-0.7123 -24.8851 0)
(-0.856207 -25.0725 0)
(-0.987425 -25.3312 0)
(-1.0703 -25.6771 0)
(-1.03629 -26.1201 0)
(-0.793878 -26.6015 0)
(-0.304525 -26.9538 0)
(0.59826 -29.1676 0)
(1.52576 -28.4438 0)
(1.95171 -27.5534 0)
(2.0128 -26.7701 0)
(1.88066 -26.1547 0)
(1.66493 -25.6875 0)
(1.4249 -25.3407 0)
(1.19082 -25.0841 0)
(0.977077 -24.8968 0)
(0.789398 -24.7594 0)
(0.627527 -24.6592 0)
(0.490244 -24.5883 0)
(0.375317 -24.5381 0)
(0.278968 -24.5031 0)
(0.197701 -24.4798 0)
(0.127912 -24.4645 0)
(0.0653377 -24.455 0)
(0.00612335 -24.451 0)
(-0.0532432 -24.452 0)
(-0.116424 -24.4585 0)
(-0.187226 -24.4716 0)
(-0.270191 -24.493 0)
(-0.369826 -24.5278 0)
(-0.488721 -24.5833 0)
(-0.629146 -24.6663 0)
(-0.79162 -24.7909 0)
(-0.969386 -24.9762 0)
(-1.1447 -25.2451 0)
(-1.2822 -25.6245 0)
(-1.29348 -26.1561 0)
(-1.03319 -26.7893 0)
(-0.407556 -27.2962 0)
(0.812903 -29.8627 0)
(1.99207 -28.7806 0)
(2.41584 -27.6193 0)
(2.38676 -26.6971 0)
(2.16189 -26.025 0)
(1.87165 -25.5389 0)
(1.57515 -25.1943 0)
(1.29938 -24.9476 0)
(1.05513 -24.7752 0)
(0.845678 -24.6522 0)
(0.667325 -24.5652 0)
(0.517821 -24.507 0)
(0.394368 -24.4675 0)
(0.29172 -24.441 0)
(0.205967 -24.4247 0)
(0.133232 -24.4142 0)
(0.068301 -24.4072 0)
(0.00689831 -24.404 0)
(-0.054643 -24.404 0)
(-0.120361 -24.4075 0)
(-0.194335 -24.4156 0)
(-0.282179 -24.4291 0)
(-0.390027 -24.4537 0)
(-0.520711 -24.4986 0)
(-0.678349 -24.5684 0)
(-0.86726 -24.6801 0)
(-1.08334 -24.8577 0)
(-1.31156 -25.1301 0)
(-1.52579 -25.5325 0)
(-1.61869 -26.1655 0)
(-1.36393 -27.0075 0)
(-0.557992 -27.7643 0)
(1.13931 -30.8275 0)
(2.64746 -29.1366 0)
(2.99345 -27.6243 0)
(2.80994 -26.5607 0)
(2.45978 -25.8477 0)
(2.08028 -25.3537 0)
(1.72054 -25.0222 0)
(1.40036 -24.7912 0)
(1.12476 -24.6399 0)
(0.89443 -24.5347 0)
(0.700125 -24.4624 0)
(0.539065 -24.4197 0)
(0.408366 -24.3922 0)
(0.300371 -24.3747 0)
(0.211072 -24.3667 0)
(0.136672 -24.3616 0)
(0.0704297 -24.3569 0)
(0.00773426 -24.3547 0)
(-0.0549926 -24.3535 0)
(-0.122248 -24.3538 0)
(-0.198009 -24.3568 0)
(-0.289221 -24.3609 0)
(-0.404599 -24.373 0)
(-0.54607 -24.4063 0)
(-0.719865 -24.4585 0)
(-0.936263 -24.5514 0)
(-1.19442 -24.714 0)
(-1.48209 -24.9813 0)
(-1.79987 -25.3814 0)
(-2.03098 -26.1214 0)
(-1.83259 -27.2458 0)
(-0.785974 -28.4204 0)
(1.65836 -32.2143 0)
(3.59368 -29.4475 0)
(3.70382 -27.5162 0)
(3.27509 -26.3355 0)
(2.76536 -25.6143 0)
(2.28436 -25.1267 0)
(1.8564 -24.8236 0)
(1.49052 -24.6134 0)
(1.18337 -24.4916 0)
(0.934448 -24.4074 0)
(0.724846 -24.3505 0)
(0.552916 -24.3268 0)
(0.416851 -24.3126 0)
(0.304476 -24.3044 0)
(0.212553 -24.3061 0)
(0.138146 -24.307 0)
(0.0717217 -24.3041 0)
(0.00860517 -24.3033 0)
(-0.0542043 -24.3007 0)
(-0.122025 -24.2977 0)
(-0.197858 -24.2958 0)
(-0.290282 -24.2889 0)
(-0.412736 -24.2852 0)
(-0.563466 -24.3075 0)
(-0.750875 -24.3367 0)
(-0.994992 -24.4035 0)
(-1.29832 -24.5423 0)
(-1.64527 -24.7976 0)
(-2.09581 -25.1437 0)
(-2.55088 -25.9796 0)
(-2.51343 -27.4701 0)
(-1.14529 -29.3686 0)
(2.52272 -34.2921 0)
(4.99651 -29.5487 0)
(4.54947 -27.2197 0)
(3.7609 -25.9943 0)
(3.06418 -25.3214 0)
(2.47562 -24.8522 0)
(1.97716 -24.6005 0)
(1.56639 -24.4121 0)
(1.22777 -24.3322 0)
(0.964943 -24.2716 0)
(0.74041 -24.2288 0)
(0.558018 -24.2299 0)
(0.419595 -24.2299 0)
(0.30361 -24.2298 0)
(0.209765 -24.2441 0)
(0.137708 -24.2516 0)
(0.0722418 -24.249 0)
(0.00942885 -24.2507 0)
(-0.0521567 -24.2463 0)
(-0.119815 -24.2395 0)
(-0.193598 -24.2344 0)
(-0.283901 -24.2143 0)
(-0.4139 -24.1892 0)
(-0.571819 -24.2052 0)
(-0.767864 -24.2038 0)
(-1.0391 -24.2359 0)
(-1.39152 -24.34 0)
(-1.78277 -24.5897 0)
(-2.39085 -24.7821 0)
(-3.1942 -25.6728 0)
(-3.52707 -27.5912 0)
(-1.73519 -30.7901 0)
(4.03003 -37.5553 0)
(7.12985 -29.0455 0)
(5.48102 -26.6466 0)
(4.22426 -25.5142 0)
(3.33645 -24.9765 0)
(2.64483 -24.5221 0)
(2.07645 -24.3602 0)
(1.62463 -24.1822 0)
(1.25359 -24.1667 0)
(0.986193 -24.1299 0)
(0.745717 -24.0944 0)
(0.552357 -24.1317 0)
(0.416917 -24.1456 0)
(0.297355 -24.1499 0)
(0.20164 -24.1822 0)
(0.135705 -24.1971 0)
(0.0721549 -24.1912 0)
(0.00997362 -24.198 0)
(-0.0485868 -24.1908 0)
(-0.116094 -24.1792 0)
(-0.185251 -24.1751 0)
(-0.267662 -24.1393 0)
(-0.408187 -24.0813 0)
(-0.570779 -24.1056 0)
(-0.766218 -24.061 0)
(-1.0631 -24.0487 0)
(-1.47525 -24.0998 0)
(-1.8663 -24.3947 0)
(-2.63735 -24.2445 0)
(-3.95543 -25.1078 0)
(-5.07211 -27.3908 0)
(-2.74477 -33.0107 0)
)
;

boundaryField
{
    left
    {
        type            calculated;
        value           nonuniform List<vector> 
16
(
(0 -27.1689 0)
(0 -27.192 0)
(0 -27.2391 0)
(0 -27.3124 0)
(0 -27.4152 0)
(0 -27.5525 0)
(0 -27.7318 0)
(0 -27.9634 0)
(0 -28.2627 0)
(0 -28.6525 0)
(0 -29.1676 0)
(0 -29.8627 0)
(0 -30.8275 0)
(0 -32.2143 0)
(0 -34.2921 0)
(0 -37.5553 0)
)
;
    }
    right
    {
        type            calculated;
        value           nonuniform List<vector> 
16
(
(0 -26.0056 0)
(0 -26.0196 0)
(0 -26.0485 0)
(0 -26.0935 0)
(0 -26.1573 0)
(0 -26.2432 0)
(0 -26.3564 0)
(0 -26.5044 0)
(0 -26.6981 0)
(0 -26.9538 0)
(0 -27.2962 0)
(0 -27.7643 0)
(0 -28.4204 0)
(0 -29.3686 0)
(0 -30.7901 0)
(0 -33.0107 0)
)
;
    }
    interface
    {
        type            calculated;
        value           nonuniform List<vector> 
32
(
(4.03003 -39.5636 0)
(7.12985 -28.5733 0)
(5.48102 -26.2797 0)
(4.22426 -25.2369 0)
(3.33645 -24.7929 0)
(2.64483 -24.3418 0)
(2.07645 -24.2372 0)
(1.62463 -24.0592 0)
(1.25359 -24.0831 0)
(0.986193 -24.0579 0)
(0.745717 -24.0236 0)
(0.552357 -24.0826 0)
(0.416917 -24.1032 0)
(0.297355 -24.1084 0)
(0.20164 -24.1514 0)
(0.135705 -24.1702 0)
(0.0721549 -24.1615 0)
(0.00997362 -24.1717 0)
(-0.0485868 -24.1628 0)
(-0.116094 -24.1485 0)
(-0.185251 -24.1464 0)
(-0.267662 -24.102 0)
(-0.408187 -24.0236 0)
(-0.570779 -24.0576 0)
(-0.766218 -23.9872 0)
(-1.0631 -23.9502 0)
(-1.47525 -23.9688 0)
(-1.8663 -24.3073 0)
(-2.63735 -23.924 0)
(-3.95543 -24.7475 0)
(-5.07211 -27.1716 0)
(-2.74477 -34.3732 0)
)
;
    }
    bottom
    {
        type            calculated;
        value           nonuniform List<vector> 
32
(
(0.0119358 -27.1632 0)
(0.0339024 -27.0677 0)
(0.0508486 -26.892 0)
(0.0613668 -26.6609 0)
(0.0656656 -26.401 0)
(0.0649608 -26.1356 0)
(0.0608055 -25.8813 0)
(0.0546013 -25.6491 0)
(0.0474763 -25.4445 0)
(0.0401989 -25.2693 0)
(0.03324 -25.1229 0)
(0.0268509 -25.0034 0)
(0.0211267 -24.9081 0)
(0.0160581 -24.8344 0)
(0.0115678 -24.7797 0)
(0.00753717 -24.7419 0)
(0.00382389 -24.7194 0)
(0.00027476 -24.7113 0)
(-0.00326469 -24.7172 0)
(-0.00694157 -24.7374 0)
(-0.010884 -24.7727 0)
(-0.0151831 -24.8245 0)
(-0.0198646 -24.8942 0)
(-0.0248488 -24.9834 0)
(-0.0298991 -25.093 0)
(-0.0345618 -25.2226 0)
(-0.0381162 -25.3695 0)
(-0.0395768 -25.5275 0)
(-0.037816 -25.6861 0)
(-0.031881 -25.83 0)
(-0.0215086 -25.9411 0)
(-0.00762092 -26.0021 0)
)
;
    }
    defaultFaces
    {
        type            empty;
    }
}


// ************************************************************************* //
