/*--------------------------------*- C++ -*----------------------------------*\
| =========                 |                                                 |
| \\      /  F ield         | OpenFOAM: The Open Source CFD Toolbox           |
|  \\    /   O peration     | Version:  5.x                                   |
|   \\  /    A nd           | Web:      www.OpenFOAM.org                      |
|    \\/     M anipulation  |                                                 |
\*---------------------------------------------------------------------------*/
FoamFile
{
    version     2.0;
    format      ascii;
    class       volVectorField;
    location    "1";
    object      cellDisplacement;
}
// * * * * * * * * * * * * * * * * * * * * * * * * * * * * * * * * * * * * * //

dimensions      [0 1 0 0 0 0 0];

internalField   nonuniform List<vector> 
2790
(
(0.0112353 1.74865e-05 0)
(0.0320363 5.06226e-05 0)
(0.0497344 8.08088e-05 0)
(0.064588 0.00010925 0)
(0.0768922 0.000136664 0)
(0.0869161 0.000163892 0)
(0.0948878 0.000191572 0)
(0.101005 0.00022027 0)
(0.105442 0.000250291 0)
(0.108353 0.000282137 0)
(0.109873 0.000316257 0)
(0.110121 0.000353085 0)
(0.109203 0.000393083 0)
(0.107216 0.000436861 0)
(0.104252 0.000485862 0)
(0.100391 0.000538634 0)
(0.0957078 0.000596648 0)
(0.0902782 0.00066061 0)
(0.0841772 0.000731248 0)
(0.077482 0.000809427 0)
(0.0702743 0.000896242 0)
(0.0626439 0.000993118 0)
(0.0546878 0.00110129 0)
(0.0465144 0.00122204 0)
(0.038249 0.00135659 0)
(0.0300759 0.0015137 0)
(0.0222345 0.00169772 0)
(0.0150756 0.0019202 0)
(0.00917109 0.00219725 0)
(0.00577805 0.00252032 0)
(0.0112511 5.24526e-05 0)
(0.0320841 0.000151853 0)
(0.0498161 0.000242401 0)
(0.064702 0.000327787 0)
(0.0770386 0.000410025 0)
(0.0870996 0.000491725 0)
(0.0951129 0.000574779 0)
(0.101276 0.000660956 0)
(0.105763 0.000751036 0)
(0.108732 0.000846605 0)
(0.110317 0.000949006 0)
(0.110638 0.00105953 0)
(0.109802 0.0011795 0)
(0.107905 0.00131038 0)
(0.105042 0.00145341 0)
(0.101298 0.00161053 0)
(0.0967469 0.00178364 0)
(0.0914663 0.00197451 0)
(0.085534 0.00218526 0)
(0.07903 0.00241844 0)
(0.0720395 0.00267729 0)
(0.0646617 0.00296673 0)
(0.0570039 0.00329075 0)
(0.0491905 0.00365453 0)
(0.0413458 0.00406554 0)
(0.033661 0.0045322 0)
(0.0264138 0.0050665 0)
(0.0199948 0.00569178 0)
(0.0151325 0.00644295 0)
(0.0131159 0.00724086 0)
(0.0112842 8.73755e-05 0)
(0.0321828 0.000252969 0)
(0.0499842 0.000403768 0)
(0.0649347 0.000545123 0)
(0.0773352 0.000681732 0)
(0.0874707 0.000817483 0)
(0.0955669 0.000955394 0)
(0.101821 0.00109873 0)
(0.106408 0.0012482 0)
(0.109491 0.00140678 0)
(0.111204 0.00157664 0)
(0.111669 0.00175988 0)
(0.110995 0.00195865 0)
(0.109283 0.00217505 0)
(0.106624 0.0024102 0)
(0.10311 0.00266983 0)
(0.0988208 0.00295571 0)
(0.0938362 0.00327063 0)
(0.0882388 0.0036179 0)
(0.0821136 0.00400142 0)
(0.0755478 0.00442558 0)
(0.0686616 0.00490059 0)
(0.061575 0.00543159 0)
(0.0544306 0.00602739 0)
(0.0474053 0.00669984 0)
(0.0407199 0.00745436 0)
(0.0346743 0.00830474 0)
(0.0296468 0.00926418 0)
(0.0264248 0.0103369 0)
(0.026446 0.0114031 0)
(0.0113344 0.000121973 0)
(0.03233 0.000353125 0)
(0.0502201 0.000563464 0)
(0.0652674 0.000760169 0)
(0.0777767 0.000950618 0)
(0.0880243 0.00113973 0)
(0.0962446 0.00133151 0)
(0.102631 0.00152935 0)
(0.107365 0.00173655 0)
(0.110616 0.00195645 0)
(0.112519 0.00219185 0)
(0.113197 0.00244556 0)
(0.112764 0.00272054 0)
(0.111323 0.00302005 0)
(0.108972 0.00334705 0)
(0.105803 0.00370616 0)
(0.101902 0.00410087 0)
(0.0973587 0.00453505 0)
(0.092261 0.00501318 0)
(0.0867069 0.00554055 0)
(0.080791 0.00612526 0)
(0.07463 0.00677361 0)
(0.0683769 0.0074923 0)
(0.0621943 0.00829143 0)
(0.0562937 0.00918295 0)
(0.0509789 0.0101797 0)
(0.0466133 0.0112865 0)
(0.0436009 0.0124935 0)
(0.0425221 0.0137585 0)
(0.0449978 0.0149561 0)
(0.0114007 0.000155911 0)
(0.0325246 0.000451347 0)
(0.0505361 0.000720115 0)
(0.0657118 0.000971832 0)
(0.0783604 0.0012152 0)
(0.0887547 0.00145668 0)
(0.0971307 0.00170091 0)
(0.103693 0.00195186 0)
(0.108629 0.00221541 0)
(0.112102 0.00249485 0)
(0.114256 0.00279368 0)
(0.115216 0.00311536 0)
(0.115098 0.00346352 0)
(0.114015 0.00384278 0)
(0.112066 0.00425691 0)
(0.109351 0.00471063 0)
(0.105962 0.00520836 0)
(0.101996 0.00575483 0)
(0.0975502 0.00635541 0)
(0.0927259 0.00701639 0)
(0.0876622 0.007749 0)
(0.0824703 0.00855375 0)
(0.0773201 0.00943959 0)
(0.0724081 0.010416 0)
(0.0679577 0.0114908 0)
(0.0642954 0.0126685 0)
(0.0619269 0.0139503 0)
(0.0613253 0.0153069 0)
(0.0629169 0.016683 0)
(0.0680299 0.0179063 0)
(0.0114823 0.000189032 0)
(0.0327643 0.000547192 0)
(0.0509279 0.000872946 0)
(0.0662608 0.00117806 0)
(0.0790788 0.00147276 0)
(0.0896528 0.00176508 0)
(0.0982217 0.00206009 0)
(0.105003 0.0023637 0)
(0.110185 0.00268168 0)
(0.113933 0.00301835 0)
(0.116395 0.0033779 0)
(0.117701 0.00376436 0)
(0.11797 0.00418151 0)
(0.117325 0.00463611 0)
(0.115869 0.00513182 0)
(0.11371 0.0056739 0)
(0.11095 0.00626734 0)
(0.107694 0.00691743 0)
(0.104054 0.0076301 0)
(0.100145 0.00841386 0)
(0.096095 0.00927427 0)
(0.0920665 0.010215 0)
(0.0882396 0.0112437 0)
(0.0848635 0.0123683 0)
(0.0821956 0.013588 0)
(0.0805214 0.0148969 0)
(0.0803605 0.0162826 0)
(0.0823956 0.0177083 0)
(0.0869917 0.0191072 0)
(0.0947248 0.0202565 0)
(0.0115781 0.000221323 0)
(0.0330477 0.000640651 0)
(0.0513926 0.00102196 0)
(0.0669108 0.00137892 0)
(0.0799293 0.00172333 0)
(0.0907113 0.00206366 0)
(0.0995058 0.00240723 0)
(0.106544 0.00276083 0)
(0.112013 0.00313054 0)
(0.116083 0.00352136 0)
(0.118905 0.00393814 0)
(0.120618 0.0043855 0)
(0.121351 0.00486912 0)
(0.121222 0.00539398 0)
(0.120343 0.00596464 0)
(0.118836 0.00658761 0)
(0.116812 0.00726797 0)
(0.114384 0.00801135 0)
(0.111672 0.00882398 0)
(0.108836 0.00971561 0)
(0.105991 0.0106863 0)
(0.103333 0.0117425 0)
(0.101054 0.012889 0)
(0.0993951 0.0141257 0)
(0.0987193 0.0154496 0)
(0.0993431 0.0168442 0)
(0.101625 0.0182772 0)
(0.106394 0.0197047 0)
(0.113977 0.0210364 0)
(0.124218 0.0220455 0)
(0.011688 0.000252638 0)
(0.0333735 0.000731291 0)
(0.0519267 0.00116644 0)
(0.067655 0.00157343 0)
(0.0808917 0.00196542 0)
(0.0919126 0.00235179 0)
(0.100975 0.002742 0)
(0.108306 0.00314294 0)
(0.114104 0.00356152 0)
(0.118539 0.00400319 0)
(0.121771 0.00447339 0)
(0.123946 0.00497769 0)
(0.125205 0.00552247 0)
(0.125659 0.00611072 0)
(0.125431 0.0067484 0)
(0.124663 0.00744377 0)
(0.123473 0.00820103 0)
(0.12199 0.00902577 0)
(0.120351 0.00992608 0)
(0.1187 0.0109064 0)
(0.117196 0.0119684 0)
(0.116077 0.013119 0)
(0.115564 0.0143569 0)
(0.115869 0.0156763 0)
(0.117337 0.0170661 0)
(0.120428 0.0185018 0)
(0.125426 0.0199416 0)
(0.132917 0.0213142 0)
(0.143297 0.0225198 0)
(0.155833 0.0233654 0)
(0.0118106 0.000282682 0)
(0.0337378 0.000818251 0)
(0.052523 0.00130501 0)
(0.0684833 0.00175973 0)
(0.0819655 0.00219717 0)
(0.0932562 0.00262825 0)
(0.102614 0.00306262 0)
(0.110271 0.00350783 0)
(0.116433 0.0039721 0)
(0.121274 0.0044608 0)
(0.124959 0.00497991 0)
(0.127644 0.00553553 0)
(0.12947 0.00613338 0)
(0.130569 0.00677792 0)
(0.131073 0.00747633 0)
(0.131122 0.00823512 0)
(0.13085 0.00905825 0)
(0.130395 0.00995193 0)
(0.129942 0.0109247 0)
(0.129616 0.0119758 0)
(0.129618 0.0131112 0)
(0.130151 0.0143314 0)
(0.131527 0.0156337 0)
(0.133999 0.0170071 0)
(0.137811 0.0184317 0)
(0.143488 0.019877 0)
(0.15132 0.0212869 0)
(0.161528 0.0225721 0)
(0.174504 0.0236324 0)
(0.189014 0.0243155 0)
(0.0119446 0.000311456 0)
(0.0341393 0.000901579 0)
(0.0531769 0.00143718 0)
(0.0693882 0.00193709 0)
(0.0831399 0.00241756 0)
(0.094724 0.00289053 0)
(0.104402 0.00336618 0)
(0.11242 0.00385363 0)
(0.118982 0.00436023 0)
(0.124264 0.00489177 0)
(0.128439 0.00545482 0)
(0.131674 0.00605605 0)
(0.134118 0.00670098 0)
(0.135912 0.00739488 0)
(0.1372 0.00814462 0)
(0.13813 0.00895571 0)
(0.13885 0.00983233 0)
(0.139525 0.0107823 0)
(0.140316 0.0118094 0)
(0.1414 0.0129142 0)
(0.14303 0.0141014 0)
(0.145387 0.0153684 0)
(0.148748 0.0167086 0)
(0.153478 0.0181068 0)
(0.159848 0.0195417 0)
(0.16816 0.0209692 0)
(0.178808 0.0223254 0)
(0.191757 0.0235184 0)
(0.207131 0.0244431 0)
(0.22328 0.0249789 0)
(0.0120878 0.000338824 0)
(0.0345571 0.000980494 0)
(0.0538683 0.00156249 0)
(0.0703642 0.00210556 0)
(0.0844083 0.00262659 0)
(0.0963089 0.00313871 0)
(0.106338 0.00365312 0)
(0.114743 0.00417943 0)
(0.121725 0.00472407 0)
(0.127475 0.00529389 0)
(0.13217 0.00589541 0)
(0.135992 0.00653632 0)
(0.139091 0.00722146 0)
(0.141621 0.00795594 0)
(0.143739 0.00874723 0)
(0.145597 0.00960019 0)
(0.147354 0.0105183 0)
(0.149219 0.0115094 0)
(0.151331 0.0125726 0)
(0.153913 0.0137124 0)
(0.157193 0.014929 0)
(0.161467 0.0162178 0)
(0.16695 0.0175691 0)
(0.173987 0.0189669 0)
(0.182958 0.0203824 0)
(0.193983 0.0217704 0)
(0.207459 0.0230654 0)
(0.223128 0.0241771 0)
(0.240718 0.0249976 0)
(0.258196 0.0254203 0)
(0.0122395 0.000364574 0)
(0.0350033 0.00105484 0)
(0.0546072 0.00168089 0)
(0.0714033 0.00226447 0)
(0.0857579 0.00282337 0)
(0.0979932 0.00337156 0)
(0.108392 0.00392129 0)
(0.117195 0.00448163 0)
(0.12462 0.00506013 0)
(0.130862 0.00566345 0)
(0.136114 0.00629925 0)
(0.14055 0.00697381 0)
(0.144335 0.00769201 0)
(0.14763 0.0084593 0)
(0.150608 0.00928223 0)
(0.153428 0.0101644 0)
(0.156277 0.0111114 0)
(0.159337 0.0121264 0)
(0.162794 0.0132092 0)
(0.166916 0.0143626 0)
(0.171911 0.0155844 0)
(0.17806 0.0168686 0)
(0.185706 0.0182023 0)
(0.19508 0.0195679 0)
(0.206596 0.0209359 0)
(0.220398 0.0222653 0)
(0.236692 0.0234932 0)
(0.255041 0.0245428 0)
(0.274737 0.0253075 0)
(0.29339 0.0256674 0)
(0.0123985 0.000388634 0)
(0.0354729 0.00112431 0)
(0.0553836 0.00179138 0)
(0.0724931 0.00241253 0)
(0.0871707 0.00300627 0)
(0.0997615 0.0035881 0)
(0.110547 0.00416982 0)
(0.119767 0.00476055 0)
(0.127655 0.00536882 0)
(0.134411 0.00600144 0)
(0.140237 0.00666581 0)
(0.145299 0.00736666 0)
(0.149785 0.00811038 0)
(0.153862 0.00890107 0)
(0.157716 0.00974535 0)
(0.161508 0.0106464 0)
(0.165462 0.0116081 0)
(0.169728 0.0126298 0)
(0.174549 0.0137138 0)
(0.180161 0.0148595 0)
(0.186859 0.0160612 0)
(0.194871 0.0173114 0)
(0.20458 0.0185957 0)
(0.216272 0.0198947 0)
(0.230225 0.0211798 0)
(0.246693 0.0224176 0)
(0.265669 0.0235588 0)
(0.286614 0.0245553 0)
(0.308381 0.025312 0)
(0.328284 0.02565 0)
(0.0125642 0.000411027 0)
(0.0359628 0.00118897 0)
(0.0561933 0.00189408 0)
(0.0736298 0.00254995 0)
(0.0886539 0.00317605 0)
(0.101611 0.00378833 0)
(0.112785 0.004398 0)
(0.122432 0.00501514 0)
(0.130796 0.00564892 0)
(0.138075 0.0063055 0)
(0.144472 0.0069914 0)
(0.150183 0.0077131 0)
(0.155382 0.00847509 0)
(0.160242 0.00928097 0)
(0.164978 0.0101365 0)
(0.169754 0.0110441 0)
(0.174771 0.0120054 0)
(0.180217 0.0130189 0)
(0.18637 0.0140848 0)
(0.193432 0.0151998 0)
(0.201726 0.0163561 0)
(0.211536 0.0175424 0)
(0.223137 0.0187425 0)
(0.236914 0.019931 0)
(0.253057 0.0210826 0)
(0.271895 0.0221682 0)
(0.293146 0.0231595 0)
(0.316416 0.0240449 0)
(0.340143 0.0247773 0)
(0.361643 0.0250773 0)
(0.012735 0.00043169 0)
(0.0364683 0.00124861 0)
(0.0570287 0.00198868 0)
(0.0748022 0.00267627 0)
(0.0901792 0.00333148 0)
(0.103506 0.00397018 0)
(0.115074 0.00460415 0)
(0.125165 0.00524449 0)
(0.134016 0.00589963 0)
(0.141823 0.00657512 0)
(0.148799 0.00727771 0)
(0.155161 0.00801385 0)
(0.161063 0.00878563 0)
(0.166712 0.00959833 0)
(0.172298 0.0104554 0)
(0.178029 0.0113579 0)
(0.184075 0.0123041 0)
(0.190659 0.0132938 0)
(0.19805 0.0143236 0)
(0.206495 0.0153867 0)
(0.216231 0.0164728 0)
(0.227603 0.0175631 0)
(0.240832 0.0186397 0)
(0.2563 0.019671 0)
(0.274174 0.0206249 0)
(0.294668 0.0214605 0)
(0.31738 0.0221504 0)
(0.342079 0.0226876 0)
(0.366815 0.0231435 0)
(0.390631 0.0231807 0)
(0.00874776 -0.00257557 0)
(0.0179657 -0.0026981 0)
(0.0356282 -0.00270655 0)
(0.0603619 -0.00261723 0)
(0.0894427 -0.00248344 0)
(0.119794 -0.00231819 0)
(0.148695 -0.00212987 0)
(0.174353 -0.00193647 0)
(0.196049 -0.00174623 0)
(0.213713 -0.00156204 0)
(0.227647 -0.00140084 0)
(0.238156 -0.00124528 0)
(0.245561 -0.00110918 0)
(0.250169 -0.000987551 0)
(0.252229 -0.000878978 0)
(0.251909 -0.00078186 0)
(0.249351 -0.000694797 0)
(0.244638 -0.000616686 0)
(0.237831 -0.000546163 0)
(0.228953 -0.000482868 0)
(0.217955 -0.000425053 0)
(0.204866 -0.000371963 0)
(0.189643 -0.000322955 0)
(0.172155 -0.000276923 0)
(0.152418 -0.000233203 0)
(0.130365 -0.000191284 0)
(0.105817 -0.00015009 0)
(0.078776 -0.000108515 0)
(0.0492094 -6.67374e-05 0)
(0.0168926 -2.27366e-05 0)
(0.0157027 -0.00752532 0)
(0.0255497 -0.00784589 0)
(0.043526 -0.00785676 0)
(0.0680329 -0.00760688 0)
(0.0966101 -0.00721925 0)
(0.1262 -0.00674094 0)
(0.154193 -0.00618986 0)
(0.178966 -0.00562867 0)
(0.199854 -0.00508102 0)
(0.216841 -0.00455726 0)
(0.230203 -0.00408523 0)
(0.240228 -0.00364388 0)
(0.247254 -0.00325029 0)
(0.25155 -0.00289767 0)
(0.253356 -0.0025818 0)
(0.252831 -0.00229899 0)
(0.250109 -0.00204492 0)
(0.245263 -0.00181665 0)
(0.238348 -0.00160999 0)
(0.229383 -0.00142461 0)
(0.218318 -0.00125493 0)
(0.205173 -0.0010988 0)
(0.189903 -0.000954561 0)
(0.172379 -0.000818958 0)
(0.152609 -0.000689913 0)
(0.130528 -0.000566159 0)
(0.105972 -0.000444586 0)
(0.0788861 -0.000322214 0)
(0.0492605 -0.000197757 0)
(0.0169149 -6.73752e-05 0)
(0.0286105 -0.0118947 0)
(0.0398746 -0.0124019 0)
(0.058317 -0.0123947 0)
(0.0825146 -0.0120353 0)
(0.1101 -0.0114176 0)
(0.138225 -0.0106647 0)
(0.164552 -0.00981299 0)
(0.187683 -0.00893167 0)
(0.207085 -0.00807826 0)
(0.222797 -0.00726895 0)
(0.235077 -0.00652351 0)
(0.244207 -0.0058393 0)
(0.250501 -0.00522048 0)
(0.254202 -0.00466385 0)
(0.255523 -0.00416288 0)
(0.254608 -0.00371322 0)
(0.251571 -0.00330793 0)
(0.246474 -0.00294298 0)
(0.239348 -0.00261053 0)
(0.230217 -0.00231337 0)
(0.219023 -0.00204012 0)
(0.205769 -0.00178783 0)
(0.19041 -0.00155449 0)
(0.172816 -0.00133488 0)
(0.15298 -0.00112503 0)
(0.130835 -0.00092385 0)
(0.106231 -0.000726102 0)
(0.0791053 -0.000527463 0)
(0.0494068 -0.000323874 0)
(0.0169617 -0.000110342 0)
(0.0468119 -0.0156575 0)
(0.0597608 -0.0162526 0)
(0.0787073 -0.0162167 0)
(0.102488 -0.0157716 0)
(0.128665 -0.0149802 0)
(0.154829 -0.0140033 0)
(0.178906 -0.0129213 0)
(0.199802 -0.0117939 0)
(0.217191 -0.0106955 0)
(0.231148 -0.00965378 0)
(0.241931 -0.00868622 0)
(0.24982 -0.00779886 0)
(0.255091 -0.00699103 0)
(0.257956 -0.00626123 0)
(0.258598 -0.00560126 0)
(0.257134 -0.00500673 0)
(0.253652 -0.00446858 0)
(0.248203 -0.0039834 0)
(0.240779 -0.00353996 0)
(0.231405 -0.00313997 0)
(0.220031 -0.00277272 0)
(0.20662 -0.00243204 0)
(0.191129 -0.00211686 0)
(0.173443 -0.00182012 0)
(0.153513 -0.00153623 0)
(0.131262 -0.00126269 0)
(0.106578 -0.000993336 0)
(0.0793755 -0.000722441 0)
(0.0495837 -0.000444217 0)
(0.0170232 -0.00015142 0)
(0.0695071 -0.0187981 0)
(0.0840313 -0.0193737 0)
(0.103481 -0.019309 0)
(0.126621 -0.0187838 0)
(0.151131 -0.0178804 0)
(0.174921 -0.0167459 0)
(0.196296 -0.0154884 0)
(0.214559 -0.0141851 0)
(0.229533 -0.0129048 0)
(0.241379 -0.0116865 0)
(0.250358 -0.0105481 0)
(0.256743 -0.00950098 0)
(0.260767 -0.00854267 0)
(0.262615 -0.00767261 0)
(0.262422 -0.0068816 0)
(0.260284 -0.00616626 0)
(0.256249 -0.00551463 0)
(0.25036 -0.00492697 0)
(0.242581 -0.00438921 0)
(0.232906 -0.0038971 0)
(0.221304 -0.00344656 0)
(0.207697 -0.00302817 0)
(0.192029 -0.0026393 0)
(0.174207 -0.00227261 0)
(0.154155 -0.00192177 0)
(0.131786 -0.00158157 0)
(0.106996 -0.0012455 0)
(0.0796922 -0.000906712 0)
(0.0497878 -0.000558013 0)
(0.0170951 -0.000190297 0)
(0.0958645 -0.0213224 0)
(0.11174 -0.0218262 0)
(0.131556 -0.0217236 0)
(0.15383 -0.0211365 0)
(0.176384 -0.0201547 0)
(0.197458 -0.0189124 0)
(0.215817 -0.0175339 0)
(0.231152 -0.0161078 0)
(0.243443 -0.0147017 0)
(0.252943 -0.0133594 0)
(0.259912 -0.0120992 0)
(0.264622 -0.0109356 0)
(0.267251 -0.00986507 0)
(0.267955 -0.00888824 0)
(0.266816 -0.00799408 0)
(0.263922 -0.00718373 0)
(0.259261 -0.00644125 0)
(0.252856 -0.00576613 0)
(0.244676 -0.00514911 0)
(0.234665 -0.00458119 0)
(0.222779 -0.00405901 0)
(0.208941 -0.00357407 0)
(0.193073 -0.00312054 0)
(0.175085 -0.00269132 0)
(0.154887 -0.00227949 0)
(0.132383 -0.00187843 0)
(0.10747 -0.00148086 0)
(0.0800451 -0.00107902 0)
(0.0500125 -0.000664532 0)
(0.0171741 -0.000226711 0)
(0.125106 -0.0232983 0)
(0.142041 -0.0237034 0)
(0.162003 -0.0235527 0)
(0.18313 -0.0229107 0)
(0.203409 -0.0218657 0)
(0.221465 -0.0205463 0)
(0.236565 -0.0190849 0)
(0.248802 -0.0175807 0)
(0.258261 -0.0160973 0)
(0.265296 -0.0146788 0)
(0.270146 -0.013341 0)
(0.273099 -0.0121024 0)
(0.27425 -0.0109557 0)
(0.273749 -0.00990552 0)
(0.271613 -0.00893788 0)
(0.267893 -0.00805367 0)
(0.262575 -0.007244 0)
(0.255619 -0.00650062 0)
(0.246987 -0.00581905 0)
(0.236607 -0.00519069 0)
(0.224411 -0.00460932 0)
(0.210313 -0.00406739 0)
(0.194224 -0.00355801 0)
(0.176048 -0.00307385 0)
(0.155686 -0.00260753 0)
(0.133033 -0.00215159 0)
(0.107982 -0.00169806 0)
(0.080423 -0.00123835 0)
(0.0502509 -0.000763155 0)
(0.0172575 -0.000260446 0)
(0.156554 -0.0248174 0)
(0.174257 -0.0251165 0)
(0.194059 -0.0249015 0)
(0.213654 -0.0241923 0)
(0.231289 -0.02308 0)
(0.246056 -0.0216981 0)
(0.257773 -0.0201822 0)
(0.266791 -0.0186321 0)
(0.27336 -0.0171124 0)
(0.277921 -0.0156611 0)
(0.280661 -0.0142879 0)
(0.281833 -0.0130096 0)
(0.281504 -0.011822 0)
(0.279767 -0.0107252 0)
(0.276632 -0.00971352 0)
(0.272075 -0.00878001 0)
(0.26607 -0.00792147 0)
(0.258551 -0.00713033 0)
(0.249447 -0.00640045 0)
(0.238675 -0.00572449 0)
(0.226149 -0.00509561 0)
(0.211773 -0.00450653 0)
(0.195447 -0.00395001 0)
(0.177068 -0.00341857 0)
(0.156527 -0.0029045 0)
(0.133715 -0.00239982 0)
(0.108517 -0.00189604 0)
(0.0808147 -0.00138393 0)
(0.0504963 -0.000853391 0)
(0.0173429 -0.000291332 0)
(0.189622 -0.0259594 0)
(0.207823 -0.0261551 0)
(0.227058 -0.0258536 0)
(0.24461 -0.0250485 0)
(0.259163 -0.02385 0)
(0.270394 -0.0224074 0)
(0.278656 -0.0208604 0)
(0.284436 -0.019297 0)
(0.288194 -0.0177759 0)
(0.290335 -0.0163254 0)
(0.291055 -0.0149559 0)
(0.290491 -0.0136707 0)
(0.288747 -0.0124737 0)
(0.28582 -0.0113588 0)
(0.281705 -0.0103249 0)
(0.276339 -0.00936648 0)
(0.269655 -0.00847909 0)
(0.261567 -0.00765675 0)
(0.251985 -0.00689343 0)
(0.240811 -0.00618252 0)
(0.227944 -0.00551729 0)
(0.213279 -0.00489074 0)
(0.196707 -0.00429565 0)
(0.178115 -0.00372451 0)
(0.157389 -0.00316948 0)
(0.134411 -0.0026223 0)
(0.109059 -0.0020741 0)
(0.0812097 -0.00151518 0)
(0.0507421 -0.000934883 0)
(0.0174281 -0.000319243 0)
(0.2239 -0.0268068 0)
(0.242292 -0.026895 0)
(0.260372 -0.0264651 0)
(0.275193 -0.0255165 0)
(0.286165 -0.0242059 0)
(0.293644 -0.0227044 0)
(0.298419 -0.0211461 0)
(0.301101 -0.0196025 0)
(0.302232 -0.0181163 0)
(0.302101 -0.0167007 0)
(0.300943 -0.0153645 0)
(0.298812 -0.0141044 0)
(0.295761 -0.0129227 0)
(0.291749 -0.0118163 0)
(0.286716 -0.0107831 0)
(0.280575 -0.00981933 0)
(0.273234 -0.00892086 0)
(0.264589 -0.00808278 0)
(0.254534 -0.00729973 0)
(0.242959 -0.00656583 0)
(0.22975 -0.00587483 0)
(0.214793 -0.00522012 0)
(0.197971 -0.00459474 0)
(0.179163 -0.00399133 0)
(0.158248 -0.00340206 0)
(0.135101 -0.00281859 0)
(0.109594 -0.00223183 0)
(0.0815975 -0.00163178 0)
(0.050982 -0.0010074 0)
(0.0175107 -0.000344098 0)
(0.259102 -0.027437 0)
(0.277287 -0.0273938 0)
(0.29327 -0.0267528 0)
(0.304454 -0.0255952 0)
(0.311363 -0.0241525 0)
(0.314989 -0.0226074 0)
(0.316409 -0.021069 0)
(0.316238 -0.0195812 0)
(0.314999 -0.0181636 0)
(0.312905 -0.0168159 0)
(0.310108 -0.0155384 0)
(0.306622 -0.014329 0)
(0.302417 -0.013187 0)
(0.297422 -0.0121105 0)
(0.291546 -0.0110978 0)
(0.284684 -0.0101462 0)
(0.276722 -0.0092524 0)
(0.267545 -0.00841261 0)
(0.257034 -0.00762233 0)
(0.245067 -0.00687652 0)
(0.231523 -0.00616961 0)
(0.216278 -0.00549554 0)
(0.199208 -0.00484776 0)
(0.180186 -0.00421922 0)
(0.159083 -0.00360227 0)
(0.135769 -0.00298859 0)
(0.11011 -0.00236907 0)
(0.0819685 -0.00173358 0)
(0.0512101 -0.00107085 0)
(0.017589 -0.00036586 0)
(0.295093 -0.0278988 0)
(0.312242 -0.0276411 0)
(0.324639 -0.0266584 0)
(0.331196 -0.0252355 0)
(0.333744 -0.0236734 0)
(0.333661 -0.0221288 0)
(0.332059 -0.0206581 0)
(0.32948 -0.0192669 0)
(0.326277 -0.0179484 0)
(0.322582 -0.0166949 0)
(0.318433 -0.0155015 0)
(0.313793 -0.0143648 0)
(0.308591 -0.0132832 0)
(0.30273 -0.0122553 0)
(0.296099 -0.0112801 0)
(0.28858 -0.0103559 0)
(0.280046 -0.00948059 0)
(0.270373 -0.00865152 0)
(0.25943 -0.0078652 0)
(0.247091 -0.00711754 0)
(0.233224 -0.00640377 0)
(0.217701 -0.00571851 0)
(0.20039 -0.00505576 0)
(0.181159 -0.00440888 0)
(0.159874 -0.00377052 0)
(0.136398 -0.00313256 0)
(0.110592 -0.00248598 0)
(0.0823138 -0.00182064 0)
(0.0514211 -0.00112525 0)
(0.017661 -0.000384531 0)
(0.331704 -0.0281692 0)
(0.345821 -0.0274982 0)
(0.352683 -0.0260255 0)
(0.353964 -0.0243486 0)
(0.352307 -0.0227467 0)
(0.349111 -0.0212819 0)
(0.345123 -0.0199358 0)
(0.340705 -0.0186806 0)
(0.336006 -0.0174943 0)
(0.331056 -0.0163622 0)
(0.325823 -0.0152763 0)
(0.320235 -0.0142323 0)
(0.314194 -0.0132288 0)
(0.30759 -0.0122653 0)
(0.300299 -0.0113419 0)
(0.292195 -0.0104581 0)
(0.283145 -0.00961319 0)
(0.273016 -0.00880563 0)
(0.261675 -0.00803312 0)
(0.248987 -0.00729256 0)
(0.234818 -0.00658011 0)
(0.219031 -0.00589113 0)
(0.201492 -0.00522028 0)
(0.182062 -0.00456142 0)
(0.160604 -0.00390761 0)
(0.136975 -0.00325104 0)
(0.111031 -0.00258289 0)
(0.0826255 -0.00189318 0)
(0.05161 -0.0011707 0)
(0.0177251 -0.000400151 0)
(0.367624 -0.0280734 0)
(0.375023 -0.0266175 0)
(0.374916 -0.0246034 0)
(0.371507 -0.0228229 0)
(0.366651 -0.0213322 0)
(0.361257 -0.0200537 0)
(0.355656 -0.0189082 0)
(0.34996 -0.0178427 0)
(0.344187 -0.0168266 0)
(0.338302 -0.0158437 0)
(0.332234 -0.0148865 0)
(0.325892 -0.0139526 0)
(0.319167 -0.0130419 0)
(0.311941 -0.0121558 0)
(0.304087 -0.0112958 0)
(0.295474 -0.0104632 0)
(0.285968 -0.00965859 0)
(0.275432 -0.0088817 0)
(0.26373 -0.00813145 0)
(0.250723 -0.00740583 0)
(0.236273 -0.00670193 0)
(0.220242 -0.00601597 0)
(0.202489 -0.00534327 0)
(0.182875 -0.00467831 0)
(0.161255 -0.00401464 0)
(0.137485 -0.00334483 0)
(0.111417 -0.00266039 0)
(0.0828962 -0.00195159 0)
(0.0517725 -0.00120745 0)
(0.0177798 -0.000412793 0)
(0.396311 -0.0269423 0)
(0.396251 -0.0240517 0)
(0.390213 -0.0218364 0)
(0.383644 -0.0204036 0)
(0.376991 -0.0193409 0)
(0.370382 -0.0184381 0)
(0.363841 -0.0176004 0)
(0.357352 -0.0167863 0)
(0.350871 -0.015978 0)
(0.344333 -0.0151688 0)
(0.337654 -0.0143579 0)
(0.330738 -0.0135475 0)
(0.323474 -0.012741 0)
(0.315744 -0.0119422 0)
(0.307422 -0.0111549 0)
(0.298377 -0.010382 0)
(0.288477 -0.00962555 0)
(0.277584 -0.00888683 0)
(0.26556 -0.00816594 0)
(0.252266 -0.00746194 0)
(0.237563 -0.00677291 0)
(0.22131 -0.0060959 0)
(0.203363 -0.005427 0)
(0.183581 -0.00476132 0)
(0.161815 -0.00409295 0)
(0.137919 -0.00341494 0)
(0.111739 -0.0027192 0)
(0.0831197 -0.00199636 0)
(0.0519049 -0.00123577 0)
(0.0178239 -0.000422557 0)
(0.0129127 0.000450913 0)
(0.036994 0.00130404 0)
(0.057898 0.00207648 0)
(0.0760226 0.00279327 0)
(0.0917645 0.00347485 0)
(0.105476 0.00413728 0)
(0.117461 0.00479293 0)
(0.128005 0.00545285 0)
(0.137345 0.00612476 0)
(0.145687 0.00681424 0)
(0.153262 0.00752862 0)
(0.160267 0.00827236 0)
(0.166872 0.00904747 0)
(0.173303 0.00985817 0)
(0.179738 0.0107062 0)
(0.186371 0.0115917 0)
(0.19341 0.0125106 0)
(0.201096 0.013461 0)
(0.209626 0.0144369 0)
(0.219291 0.0154252 0)
(0.230284 0.0164137 0)
(0.242933 0.0173785 0)
(0.257453 0.018293 0)
(0.274097 0.0191161 0)
(0.292959 0.0197993 0)
(0.314031 0.0202691 0)
(0.336823 0.0204231 0)
(0.360634 0.0200415 0)
(0.383143 0.0186914 0)
(0.403295 0.0148578 0)
(0.013098 0.000468725 0)
(0.0375411 0.0013553 0)
(0.0588039 0.00215757 0)
(0.0772959 0.00290107 0)
(0.0934164 0.00360632 0)
(0.107527 0.0042896 0)
(0.119937 0.00496336 0)
(0.130948 0.00563908 0)
(0.140794 0.00632392 0)
(0.149684 0.00702318 0)
(0.157862 0.00774375 0)
(0.165506 0.00848785 0)
(0.172822 0.0092589 0)
(0.180005 0.0100593 0)
(0.187268 0.0108882 0)
(0.194781 0.0117442 0)
(0.20275 0.0126235 0)
(0.211421 0.0135182 0)
(0.220964 0.0144207 0)
(0.231653 0.0153147 0)
(0.243682 0.0161816 0)
(0.257271 0.0169931 0)
(0.272599 0.0177129 0)
(0.289755 0.0182907 0)
(0.3087 0.0186594 0)
(0.32912 0.0187227 0)
(0.35027 0.0183427 0)
(0.370861 0.0173188 0)
(0.389007 0.015385 0)
(0.403603 0.0120734 0)
(0.0132887 0.000484779 0)
(0.0380993 0.00140129 0)
(0.0597325 0.00223044 0)
(0.0786046 0.00299777 0)
(0.0951118 0.00372355 0)
(0.109629 0.00442445 0)
(0.12248 0.00511326 0)
(0.133965 0.005801 0)
(0.144309 0.00649359 0)
(0.153752 0.00719761 0)
(0.162513 0.00791817 0)
(0.170791 0.00865729 0)
(0.178792 0.00941642 0)
(0.186699 0.0101973 0)
(0.194727 0.0109984 0)
(0.203051 0.011814 0)
(0.211853 0.0126402 0)
(0.221369 0.0134665 0)
(0.231774 0.0142809 0)
(0.243261 0.0150646 0)
(0.256013 0.0157926 0)
(0.270121 0.0164349 0)
(0.285719 0.0169458 0)
(0.302683 0.0172744 0)
(0.320841 0.017344 0)
(0.339587 0.0170731 0)
(0.358023 0.0163477 0)
(0.375013 0.0150498 0)
(0.389551 0.0129831 0)
(0.400623 0.00995458 0)
(0.0134857 0.000499049 0)
(0.0386891 0.0014426 0)
(0.0606975 0.00229526 0)
(0.0799379 0.00308246 0)
(0.0968348 0.00382538 0)
(0.111762 0.00454032 0)
(0.125059 0.00524052 0)
(0.137012 0.00593591 0)
(0.147861 0.00663269 0)
(0.157845 0.00733607 0)
(0.167177 0.00805044 0)
(0.176063 0.00877822 0)
(0.184705 0.00951856 0)
(0.193302 0.0102719 0)
(0.202017 0.0110357 0)
(0.211044 0.0118018 0)
(0.220572 0.0125649 0)
(0.230784 0.013312 0)
(0.241839 0.0140271 0)
(0.253852 0.0146916 0)
(0.266958 0.0152739 0)
(0.281171 0.0157444 0)
(0.296501 0.0160559 0)
(0.312691 0.0161614 0)
(0.329411 0.0159957 0)
(0.346004 0.0154989 0)
(0.361756 0.0145895 0)
(0.375892 0.0131794 0)
(0.387666 0.0111672 0)
(0.396387 0.00851804 0)
(0.0136856 0.000511351 0)
(0.0392828 0.00147801 0)
(0.0616678 0.0023504 0)
(0.0812807 0.00315402 0)
(0.0985685 0.00391059 0)
(0.11392 0.00463672 0)
(0.127655 0.00534419 0)
(0.140068 0.00604268 0)
(0.151411 0.0067391 0)
(0.161917 0.00743729 0)
(0.171794 0.00813977 0)
(0.18125 0.00884951 0)
(0.190499 0.00956545 0)
(0.199699 0.0102835 0)
(0.209018 0.0110016 0)
(0.21865 0.0117111 0)
(0.228759 0.0124035 0)
(0.239489 0.0130647 0)
(0.250941 0.013675 0)
(0.263194 0.0142162 0)
(0.276315 0.0146579 0)
(0.290258 0.0149675 0)
(0.304884 0.0151078 0)
(0.319906 0.0150354 0)
(0.334945 0.0147045 0)
(0.349484 0.0140663 0)
(0.362973 0.0130668 0)
(0.374855 0.0116508 0)
(0.384575 0.00979837 0)
(0.391722 0.00751804 0)
(0.0138847 0.000521457 0)
(0.0398731 0.00150698 0)
(0.0626352 0.00239533 0)
(0.082617 0.0032116 0)
(0.100295 0.00397821 0)
(0.116068 0.00471186 0)
(0.130244 0.00542326 0)
(0.1431 0.00612052 0)
(0.154912 0.00681137 0)
(0.165918 0.00749966 0)
(0.1763 0.00818537 0)
(0.186291 0.00887175 0)
(0.196078 0.00955663 0)
(0.205795 0.0102338 0)
(0.215634 0.0109004 0)
(0.225747 0.0115475 0)
(0.236275 0.0121641 0)
(0.247322 0.0127361 0)
(0.258935 0.013243 0)
(0.271181 0.0136649 0)
(0.284029 0.0139769 0)
(0.297379 0.0141483 0)
(0.311047 0.0141496 0)
(0.324769 0.0139456 0)
(0.3382 0.0135021 0)
(0.350934 0.0127848 0)
(0.36257 0.0117569 0)
(0.372659 0.0104062 0)
(0.380835 0.00874459 0)
(0.386896 0.00679422 0)
(0.0140809 0.000529226 0)
(0.0404548 0.00152917 0)
(0.0635924 0.00242958 0)
(0.0839549 0.0032554 0)
(0.102008 0.00402788 0)
(0.118178 0.00476458 0)
(0.132787 0.00547618 0)
(0.146072 0.00616848 0)
(0.158336 0.00684955 0)
(0.169801 0.00752287 0)
(0.180651 0.00818734 0)
(0.191115 0.00884537 0)
(0.201366 0.00949399 0)
(0.211519 0.0101258 0)
(0.221766 0.010737 0)
(0.232225 0.0113182 0)
(0.243013 0.0118571 0)
(0.254181 0.0123408 0)
(0.265754 0.0127493 0)
(0.277751 0.0130634 0)
(0.290099 0.0132623 0)
(0.302688 0.0133205 0)
(0.315331 0.0132132 0)
(0.327784 0.0129145 0)
(0.33976 0.0124009 0)
(0.350972 0.0116455 0)
(0.361066 0.0106389 0)
(0.369716 0.00939114 0)
(0.376729 0.0079154 0)
(0.381996 0.00624542 0)
(0.0142722 0.000534555 0)
(0.0410228 0.00154432 0)
(0.0645289 0.00245264 0)
(0.0852606 0.00328396 0)
(0.103682 0.00405877 0)
(0.120243 0.0047949 0)
(0.135259 0.00550241 0)
(0.148956 0.00618625 0)
(0.161625 0.00685322 0)
(0.173511 0.00750691 0)
(0.184784 0.00814631 0)
(0.195657 0.00877182 0)
(0.206289 0.00938029 0)
(0.216787 0.00996374 0)
(0.227327 0.0105173 0)
(0.237998 0.0110323 0)
(0.248873 0.0114955 0)
(0.259983 0.0118949 0)
(0.271343 0.0122135 0)
(0.282933 0.0124338 0)
(0.294676 0.0125375 0)
(0.306449 0.0125046 0)
(0.31808 0.0123158 0)
(0.329354 0.0119528 0)
(0.340072 0.0113985 0)
(0.349972 0.0106416 0)
(0.358771 0.00968981 0)
(0.366283 0.008552 0)
(0.372393 0.00724733 0)
(0.377046 0.00581059 0)
(0.0144556 0.000537327 0)
(0.0415684 0.0015521 0)
(0.0654302 0.00246398 0)
(0.0865176 0.00329675 0)
(0.1053 0.00407035 0)
(0.122234 0.0048021 0)
(0.137626 0.00550141 0)
(0.151693 0.00617238 0)
(0.164744 0.00682233 0)
(0.177014 0.00745346 0)
(0.188643 0.00806375 0)
(0.199853 0.00865334 0)
(0.210778 0.009219 0)
(0.221524 0.00975306 0)
(0.232231 0.010249 0)
(0.242966 0.010699 0)
(0.253789 0.0110913 0)
(0.264722 0.0114139 0)
(0.275759 0.0116524 0)
(0.286861 0.0117921 0)
(0.297949 0.0118178 0)
(0.308905 0.0117143 0)
(0.319585 0.0114677 0)
(0.329811 0.011064 0)
(0.339407 0.0104952 0)
(0.34817 0.00976398 0)
(0.355908 0.00887754 0)
(0.362504 0.0078481 0)
(0.367892 0.00669599 0)
(0.372048 0.00545255 0)
(0.0146281 0.00053744 0)
(0.042083 0.00155221 0)
(0.0662823 0.00246319 0)
(0.0877072 0.00329328 0)
(0.106838 0.00406215 0)
(0.124124 0.00478582 0)
(0.139856 0.00547311 0)
(0.154266 0.00612809 0)
(0.16766 0.00675719 0)
(0.180244 0.00736244 0)
(0.192172 0.00794166 0)
(0.203634 0.00849351 0)
(0.214753 0.00901481 0)
(0.225643 0.00949915 0)
(0.236407 0.00993971 0)
(0.247109 0.0103284 0)
(0.25779 0.0106551 0)
(0.268461 0.0109089 0)
(0.279105 0.011078 0)
(0.289675 0.0111503 0)
(0.300095 0.011114 0)
(0.31026 0.0109582 0)
(0.320071 0.010671 0)
(0.329367 0.0102472 0)
(0.337975 0.00968589 0)
(0.345766 0.0089927 0)
(0.352622 0.00817573 0)
(0.358465 0.00724855 0)
(0.36326 0.0062304 0)
(0.366999 0.00514791 0)
(0.0147865 0.000534816 0)
(0.0425576 0.00154446 0)
(0.0670723 0.00245002 0)
(0.088808 0.00327313 0)
(0.108276 0.00403378 0)
(0.125886 0.00474597 0)
(0.141914 0.0054175 0)