/*--------------------------------*- C++ -*----------------------------------*\
| =========                 |                                                 |
| \\      /  F ield         | OpenFOAM: The Open Source CFD Toolbox           |
|  \\    /   O peration     | Version:  2006                                  |
|   \\  /    A nd           | Website:  www.openfoam.com                      |
|    \\/     M anipulation  |                                                 |
\*---------------------------------------------------------------------------*/
FoamFile
{
    version     2.0;
    format      ascii;
    class       surfaceScalarField;
    location    "1";
    object      meshPhi;
}
// * * * * * * * * * * * * * * * * * * * * * * * * * * * * * * * * * * * * * //

dimensions      [0 3 -1 0 0 0 0];
oriented        oriented;


internalField   nonuniform List<scalar> 
5457
(
0.00026757
1.65261e-06
0.000505877
4.72682e-06
0.000717343
7.49876e-06
0.000902424
1.01731e-05
0.00106248
1.26586e-05
0.00120286
1.48065e-05
0.00132481
1.69395e-05
0.00142691
1.92121e-05
0.00150829
2.15252e-05
0.00156839
2.35858e-05
0.00160893
2.51212e-05
0.00163136
2.63214e-05
0.001637
2.72762e-05
0.00162817
2.79028e-05
0.00160724
2.82241e-05
0.00157685
2.83715e-05
0.00154072
2.87043e-05
0.00149938
2.88202e-05
0.00145241
2.86256e-05
0.00140206
2.97497e-05
0.00134843
3.34486e-05
0.00129595
4.03858e-05
0.0012352
5.01824e-05
0.00115056
6.27798e-05
0.00104702
8.02244e-05
0.000928681
0.000103733
0.000792382
0.000134438
0.000645506
0.000176828
0.000525272
0.00023683
0.000325842
0.000267551
3.30698e-06
0.000506112
9.4606e-06
0.00071856
1.49905e-05
0.000904
2.0148e-05
0.00106306
2.49297e-05
0.00120382
2.93693e-05
0.00132727
3.38319e-05
0.00143077
3.84279e-05
0.00151327
4.31824e-05
0.00157369
4.74165e-05
0.00161486
5.0403e-05
0.0016385
5.2758e-05
0.00164533
5.47511e-05
0.00163775
5.60924e-05
0.00161806
5.6757e-05
0.00158867
5.67225e-05
0.0015525
5.55152e-05
0.00151371
5.42057e-05
0.00147142
5.49196e-05
0.00142505
5.79925e-05
0.00137557
6.44001e-05
0.00132821
7.54103e-05
0.00128314
9.32171e-05
0.00122061
0.000120096
0.00114192
0.000155086
0.0010622
0.000197994
0.000982765
0.000250092
0.00091871
0.000313532
0.000924049
0.000392271
0.00044764
0.000268113
4.95899e-06
0.000507344
1.41916e-05
0.00072073
2.24271e-05
0.00090672
2.9805e-05
0.00106571
3.6711e-05
0.00120775
4.36593e-05
0.00133345
5.06279e-05
0.00143974
5.74975e-05
0.00152394
6.4266e-05
0.00158422
7.0188e-05
0.00162703
7.48059e-05
0.0016537
7.86921e-05
0.0016632
8.18549e-05
0.00165843
8.39557e-05
0.00164176
8.49626e-05
0.00161561
8.4793e-05
0.00158232
8.30247e-05
0.001549
8.13143e-05
0.0015147
8.21691e-05
0.00147757
8.60916e-05
0.00144093
9.48106e-05
0.00140686
0.000110274
0.00138493
0.000135692
0.00135698
0.000172822
0.00132198
0.000219683
0.00130841
0.000277226
0.00132605
0.000345602
0.00138721
0.000420894
0.00154816
0.000500071
0.000558963
0.000269473
6.5907e-06
0.000509692
1.88826e-05
0.00072255
2.97847e-05
0.00090946
3.94807e-05
0.0010717
4.86925e-05
0.00121605
5.80452e-05
0.00134348
6.73158e-05
0.00145273
7.62629e-05
0.00153873
8.44302e-05
0.0016003
9.16291e-05
0.0016466
9.8332e-05
0.00167753
0.000104164
0.00169115
0.000108522
0.00169073
0.000111356
0.00167888
0.000112665
0.00165848
0.000112505
0.00163276
0.000111129
0.00160935
0.000110078
0.00158529
0.00011063
0.00156117
0.000114177
0.00154453
0.000124276
0.00153241
0.000143291
0.00153828
0.000172943
0.00155344
0.00021451
0.00157577
0.000269021
0.001639
0.000338217
0.00176537
0.00041937
0.00196057
0.000504248
0.00224634
0.000583992
0.000613974
0.000271799
8.19049e-06
0.00051324
2.33985e-05
0.000724522
3.68167e-05
0.000912939
4.89836e-05
0.00108009
6.06936e-05
0.00122734
7.23122e-05
0.00135665
8.37143e-05
0.00146798
9.4683e-05
0.00155685
0.000104646
0.00162365
0.000113664
0.00167503
0.000122239
0.00171039
0.000129616
0.0017293
0.00013507
0.00173461
0.00013857
0.00172929
0.000140118
0.00171651
0.00013986
0.00170055
0.000138391
0.00168862
0.000136861
0.00167773
0.000136174
0.00167179
0.000139105
0.00168144
0.000149833
0.00169498
0.000169104
0.00172516
0.000197577
0.00179301
0.000240322
0.00189093
0.000301498
0.00203494
0.000380343
0.00226034
0.000473826
0.00257305
0.000576597
0.00293712
0.000679425
0.000695349
0.000273934
9.69424e-06
0.000516846
2.75945e-05
0.000728151
4.34451e-05
0.000918768
5.81509e-05
0.00109008
7.23379e-05
0.00124065
8.61963e-05
0.00137285
9.97378e-05
0.00148679
0.000112797
0.00158034
0.000124984
0.00165417
0.000136143
0.00171139
0.000146293
0.00175227
0.000154922
0.0017777
0.000161414
0.00179019
0.00016552
0.00179312
0.000167249
0.00178967
0.000166763
0.00178361
0.000164526
0.00177925
0.000160832
0.00178454
0.000157936
0.0018047
0.000160609
0.00184321
0.000170424
0.00188831
0.000186459
0.00194914
0.000212015
0.00207034
0.000254221
0.00224771
0.000316587
0.00247471
0.000398248
0.00278852
0.000500152
0.00320058
0.000624154
0.00364372
0.00076529
0.000873928
0.000274242
1.10967e-05
0.000519158
3.16505e-05
0.000734142
5.00472e-05
0.000927721
6.72253e-05
0.00110202
8.37053e-05
0.00125622
9.97264e-05
0.00139215
0.000115384
0.00151011
0.000130527
0.00160934
0.000144823
0.00169019
0.000158005
0.00175437
0.000169855
0.00180266
0.000179869
0.00183605
0.000187403
0.00185721
0.000192085
0.00187022
0.000193975
0.00187813
0.000193205
0.00188334
0.000189862
0.00188833
0.000184359
0.00191184
0.000179812
0.00195771
0.000180301
0.00201858
0.000185586
0.00210286
0.000196542
0.00221736
0.000218896
0.00238877
0.000256925
0.00262728
0.000311879
0.00293251
0.000384464
0.0033315
0.000475696
0.00384504
0.000584172
0.00442244
0.000698491
0.00077343
0.000273183
1.23989e-05
0.000521108
3.55719e-05
0.00074158
5.65336e-05
0.000938633
7.6025e-05
0.00111583
9.4644e-05
0.00127398
0.000112755
0.00141432
0.000130462
0.00153723
0.000147624
0.00164262
0.000163921
0.00173096
0.000179018
0.00180341
0.000192569
0.00186069
0.00020402
0.00190383
0.000212683
0.00193518
0.000218025
0.00195988
0.000220056
0.00198127
0.000218941
0.00200041
0.00021458
0.00202333
0.000207887
0.00206677
0.00020156
0.00213381
0.000198141
0.00222087
0.000198454
0.00234397
0.000204412
0.00251084
0.000220279
0.00273585
0.000249075
0.00302046
0.00029094
0.00338474
0.000344535
0.00385483
0.000404696
0.00444942
0.000454813
0.00513842
0.000466892
0.000399287
0.000273479
1.37191e-05
0.000524572
3.94317e-05
0.000749639
6.27589e-05
0.000950386
8.44241e-05
0.00113118
0.000105095
0.00129366
0.000125201
0.00143898
0.000144866
0.00156757
0.000163956
0.00167968
0.000182137
0.00177604
0.00019903
0.0018577
0.000214223
0.00192571
0.000227188
0.0019813
0.000237282
0.00202386
0.000243411
0.00206091
0.000245328
0.00209806
0.000243723
0.00213335
0.000238325
0.00217722
0.000229961
0.00224167
0.000221207
0.00233156
0.000214332
0.00245278
0.000210322
0.0026108
0.000209824
0.00281079
0.000216866
0.00307838
0.000234876
0.00340265
0.00026163
0.00380665
0.000293755
0.00431776
0.000321494
0.00492739
0.000317816
0.00558172
0.000251888
0.000113884
0.000277082
1.50908e-05
0.000530521
4.32823e-05
0.000758618
6.87633e-05
0.000963108
9.24497e-05
0.00114789
0.000115072
0.00131504
0.000137071
0.00146587
0.0001586
0.00160078
0.000179527
0.0017202
0.000199496
0.0018252
0.000218095
0.00191692
0.00023488
0.00199799
0.000249515
0.00206699
0.00026094
0.0021198
0.000267213
0.00217147
0.000268945
0.00222881
0.000267504
0.0022816
0.000261303
0.00234391
0.000250707
0.00242934
0.000238799
0.00254085
0.000227695
0.00268277
0.000218251
0.00286998
0.000211019
0.00310057
0.000209379
0.00338545
0.000216425
0.00374839
0.000229974
0.00419648
0.000245276
0.00472177
0.000250672
0.00527915
0.000225247
0.00575547
0.00016466
8.41778e-05
0.000281762
1.63609e-05
0.000537656
4.68799e-05
0.000768473
7.44233e-05
0.000976772
0.000100036
0.00116577
0.000124495
0.00133781
0.000148258
0.00149457
0.000171519
0.00163638
0.000194172
0.00176389
0.000215859
0.00187835
0.000236146
0.00198065
0.000254452
0.00207543
0.000270448
0.00215639
0.000282684
0.00222046
0.000289182
0.00229158
0.000291553
0.00236977
0.000290359
0.00243946
0.000282528
0.00252184
0.000269375
0.00263077
0.000254541
0.00276091
0.00023877
0.00291446
0.000223333
0.0031185
0.000210075
0.00338176
0.000200938
0.00369175
0.000198766
0.00409253
0.000203033
0.00457799
0.000207687
0.00509335
0.000202156
0.0055633
0.000180621
0.00584869
0.000168409
0.000171933
0.00028565
1.75312e-05
0.000544726
5.02234e-05
0.000778926
7.972e-05
0.000991274
0.000107152
0.00118462
0.000133333
0.00136152
0.00015871
0.00152446
0.000183537
0.00167383
0.000207807
0.00181068
0.000231229
0.00193566
0.000253266
0.00204816
0.000272948
0.00215582
0.000290005
0.00224961
0.000303163
0.00232782
0.000310182
0.00241894
0.000312717
0.00251287
0.000310962
0.00260235
0.000301912
0.00271295
0.000287296
0.0028492
0.000269758
0.00300011
0.000249292
0.00317444
0.000227894
0.00339581
0.000208653
0.00368888
0.00019389
0.00404225
0.000185871
0.00446783
0.000184856
0.00495336
0.000187461
0.00542677
0.000189495
0.00580098
0.000195481
0.00599837
0.000223967
0.000221846
0.000289229
1.86132e-05
0.000551815
5.33278e-05
0.000789837
8.46591e-05
0.00100664
0.000113815
0.00120449
0.000141631
0.00138585
0.000168469
0.00155505
0.000194663
0.00171287
0.000220448
0.00186074
0.000245634
0.00199607
0.000269231
0.00211689
0.000289752
0.00223799
0.000307641
0.00234783
0.000322014
0.00244218
0.000329893
0.00255126
0.000332406
0.00266279
0.000330236
0.00278063
0.00032115
0.00292158
0.000305709
0.00307861
0.000284957
0.00324895
0.000259189
0.00345425
0.00023206
0.00371073
0.000207777
0.00403039
0.000188292
0.00441224
0.000176127
0.00484551
0.000174246
0.00530335
0.000184302
0.0057154
0.000210005
0.00601995
0.000258442
0.0062395
0.000318111
0.000309585
0.000292584
1.95962e-05
0.000558856
5.61647e-05
0.000800984
8.91928e-05
0.00102299
0.000119982
0.00122534
0.00014928
0.00141016
0.000177301
0.00158589
0.000204727
0.00175283
0.000231976
0.00191147
0.000258584
0.00205584
0.00028326
0.00218593
0.000304731
0.00232227
0.000323856
0.0024492
0.000339449
0.00256237
0.000348303
0.00269208
0.00035131
0.0028287
0.000349336
0.00297385
0.00034005
0.00313499
0.000322328
0.00330215
0.000297605
0.00349441
0.000268082
0.00374028
0.000237095
0.00403561
0.000208299
0.00437793
0.000184258
0.00477081
0.000168997
0.00519906
0.000167894
0.00562328
0.000186217
0.00599387
0.00023062
0.00629944
0.000300835
0.00661542
0.000369012
0.00039048
0.000295613
2.0481e-05
0.000565642
5.87337e-05
0.000811926
9.33073e-05
0.00103902
0.000125506
0.00124599
0.000156049
0.00143558
0.000185345
0.00161842
0.000214198
0.00179315
0.000242654
0.00196043
0.000270164
0.00211489
0.000295849
0.00225856
0.000318679
0.00240969
0.000338968
0.00255197
0.000355332
0.0026877
0.000365414
0.00283975
0.000369327
0.00299731
0.000366627
0.00316259
0.000356388
0.00334017
0.0003374
0.00352206
0.000309504
0.0037471
0.000276896
0.00403312
0.00024334
0.00435489
0.000210727
0.00471408
0.000182582
0.0051104
0.000164718
0.00552429
0.000163704
0.00591951
0.000186126
0.00627275
0.000238131
0.00658364
0.000317314
0.00688441
0.000406578
0.000127842
0.000708053
-0.000353461
0.00143171
-0.000331223
0.00239171
-0.000324941
0.00333658
-0.000302854
0.00414854
-0.000275551
0.00485834
-0.000250136
0.00543428
-0.000227388
0.00584985
-0.000205559
0.00614868
-0.000178323
0.00634746
-0.000149012
0.00646565
-0.000133022
0.00653475
-0.000127148
0.00655262
-0.000119572
0.00652916
-0.000109405
0.00647487
-9.99603e-05
0.00636575
-9.22175e-05
0.0061983
-8.35794e-05
0.00598791
-7.53126e-05
0.00573485
-7.06752e-05
0.00543943
-6.68662e-05
0.00510051
-6.16968e-05
0.00471763
-5.60902e-05
0.00429204
-5.04246e-05
0.00382398
-4.45034e-05
0.00331219
-3.79298e-05
0.00274934
-3.12931e-05
0.00214871
-2.53332e-05
0.00151245
-1.91803e-05
0.000798007
-1.2155e-05
-4.25789e-06
0.00121099
-0.000518045
0.00187735
-0.000526703
0.00274188
-0.00053256
0.00360428
-0.000510544
0.00436589
-0.000472399
0.00502647
-0.000433706
0.00555299
-0.000397856
0.00594121
-0.000361578
0.00621805
-0.000325478
0.00640022
-0.000289212
0.00651364
-0.000259977
0.00657994
-0.000240763
0.00659424
-0.000224071
0.00656467
-0.00020592
0.00650023
-0.000189274
0.0063866
-0.000176447
0.00621799
-0.000164151
0.00600511
-0.000151488
0.00574955
-0.000140677
0.00545188
-0.000130457
0.00511063
-0.000119948
0.00472546
-0.000109217
0.00429837
-9.81636e-05
0.00382959
-8.68175e-05
0.00331762
-7.49776e-05
0.00275769
-6.28329e-05
0.00215533
-5.05402e-05
0.00151002
-3.76499e-05
0.000794216
-2.37801e-05
-8.33687e-06
0.00196385
-0.000544387
0.00257222
-0.000574855
0.00331377
-0.000603583
0.00405722
-0.000606254
0.00472438
-0.000586389
0.00530046
-0.000551255
0.00575291
-0.000511803
0.00609073
-0.000470999
0.00632918
-0.000431448
0.00648944
-0.000393731
0.00659303
-0.000361491
0.00664989
-0.000335727
0.00665855
-0.000312839
0.00662274
-0.000291366
0.00654786
-0.000271743
0.00642705
-0.000254242
0.00625483
-0.000237309
0.00603807
-0.000220251
0.00577869
-0.000204381
0.00547733
-0.000189041
0.00513292
-0.000173755
0.00474471
-0.000158442
0.00431498
-0.000142621
0.00384427
-0.000126379
0.00333081
-0.000109684
0.00277173
-9.24119e-05
0.00216673
-7.45263e-05
0.0015124
-5.56208e-05
0.000793109
-3.51101e-05
-1.22666e-05
0.00274691
-0.000487668
0.00331946
-0.000545382
0.00394548
-0.00059731
0.00456794
-0.0006192
0.00513909
-0.000621294
0.00562078
-0.000603707
0.00599315
-0.00057338
0.00627019
-0.000537357
0.00646661
-0.000500702
0.00660388
-0.000466098
0.00669399
-0.000435254
0.00673871
-0.000408722
0.0067399
-0.000384798
0.00669687
-0.000362287
0.00661443
-0.00034159
0.00648734
-0.000322037
0.00630773
-0.000301746
0.00608471
-0.000280808
0.00582047
-0.000260931
0.0055144
-0.000241737
0.00516608
-0.000222544
0.00477446
-0.000203228
0.00434099
-0.000183393
0.00386684
-0.000162929
0.00335041
-0.000141834
0.00278906
-0.000119925
0.00218053
-9.69639e-05
0.0015199
-7.24902e-05
0.000795915
-4.57997e-05
-1.59994e-05
0.00350513
-0.00044413
0.00406244
-0.000538334
0.00458735
-0.000583013
0.00509175
-0.000603213
0.00556261
-0.000613643
0.00594593
-0.000609588
0.00624027
-0.000591952
0.00645919
-0.000566691
0.00661975
-0.000538603
0.0067351
-0.000511097
0.00681099
-0.000485513
0.00684337
-0.000462015
0.00683604
-0.000440229
0.00678258
-0.000418708
0.00668918
-0.000397087
0.00655946
-0.00037642
0.00637376
-0.000355285
0.00614192
-0.00033257
0.00587183
-0.000309984
0.00556057
-0.000288019
0.0052073
-0.000265909
0.00481145
-0.000243389
0.00437356
-0.000220274
0.00389485
-0.000196305
0.00337421
-0.000171392
0.00280905
-0.000145341
0.00219614
-0.000117797
0.00152992
-8.82158e-05
0.000800731
-5.57979e-05
-1.9501e-05
0.00432172
-0.00057156
0.00481574
-0.000529419
0.00522727
-0.00053837
0.0056056
-0.000554154
0.00595787
-0.000573219
0.00624732
-0.000582676
0.00647541
-0.000579978
0.0066482
-0.00056833
0.00677967
-0.000551717
0.00687461
-0.000533371
0.00693918
-0.00051543
0.00695753
-0.000497461
0.00693526
-0.000478385
0.00687345
-0.000459033
0.00676522
-0.000438288
0.00662964
-0.000416936
0.00644429
-0.000396391
0.00620593
-0.000374555
0.00593005
-0.000351242
0.0056134
-0.000327707
0.0052546
-0.000303687
0.00485366
-0.000278906
0.0044109
-0.000253218
0.00392704
-0.000226393
0.00340137
-0.000198259
0.00283148
-0.000168569
0.00221362
-0.000136924
0.00154177
-0.000102712
0.000806798
-6.50437e-05
-2.27462e-05
0.00515245
-0.000404207
0.00549315
-0.000378149
0.00577119
-0.000403235
0.00603599
-0.000452418
0.00629177
-0.000501453
0.00651276
-0.00053414
0.00669386
-0.000549624
0.00683352
-0.000552526
0.00693801
-0.000547348
0.00700823
-0.000537417
0.00705846
-0.000526312
0.00706772
-0.000515296
0.00702626
-0.000501082
0.00695803
-0.000484402
0.00684509
-0.00046694
0.00669771
-0.000447929
0.00651202
-0.000428315
0.00627267
-0.000407621
0.0059923
-0.000384927
0.00567032
-0.000361001
0.00530596
-0.00033599
0.00489951
-0.00030977
0.00445142
-0.000282208
0.00396213
-0.000253122
0.00343102
-0.000222314
0.00285583
-0.000189505
0.00223254
-0.000154258
0.00155483
-0.000115908
0.000813621
-7.3488e-05
-2.57156e-05
0.00574602
-9.24243e-05
0.00594403
-0.000134431
0.00613885
-0.000233018
0.00635007
-0.000342556
0.0065617
-0.00042912
0.00674598
-0.000484406
0.00689579
-0.000514791
0.00700973
-0.000529025
0.00708737
-0.000533124
0.00712953
-0.000530547
0.00715287
-0.000524678
0.0071576
-0.000518775
0.00711306
-0.000511043
0.00703633
-0.000499424
0.00692661
-0.000485804
0.00677256
-0.000470514
0.00658058
-0.000452978
0.00634035
-0.000433405
0.00605625
-0.000411718
0.00572925
-0.000388185
0.00535949
-0.000362944
0.00494749
-0.000335974
0.00449386
-0.000307184
0.00399897
-0.000276423
0.00346223
-0.000243488
0.00288142
-0.000208081
0.00225239
-0.000169737
0.00156861
-0.000127752
0.000820858
-8.10938e-05
-2.83952e-05
0.00597658
9.98508e-05
0.00614925
1.08467e-05
0.00636566
-0.000147629
0.00659042
-0.000292559
0.00679271
-0.000392861
0.0069559
-0.000453277
0.00707735
-0.000487033
0.00716647
-0.000505253
0.00722205
-0.000514645
0.00724463
-0.00051815
0.00724307
-0.000517634
0.00723587
-0.000515566
0.00719829
-0.000512383
0.00711827
-0.000506317
0.00700569
-0.000496958
0.00684955
-0.000484779
0.0066513
-0.000469851
0.00640793
-0.000452272
0.00612005
-0.000432117
0.00578836
-0.000409556
0.00541343
-0.000384712
0.00499603
-0.000357604
0.0045369
-0.000328173
0.00403642
-0.000296291
0.00349403
-0.000261758
0.00290751
-0.000224264
0.00227261
-0.000183328
0.00158264
-0.000138211
0.000828238
-8.78368e-05
-3.07754e-05
0.00601686
9.10374e-05
0.00627081
-3.76971e-05
0.00656654
-0.000197664
0.0068191
-0.000323302
0.00700758
-0.000400859
0.00714317
-0.000444887
0.0072333
-0.000469796
0.00729633
-0.000484649
0.0073368
-0.000494563
0.00735128
-0.000501406
0.00734249
-0.000505603
0.00732209
-0.000507938
0.0072799
-0.000508419
0.00719924
-0.000506144
0.00708133
-0.000500657
0.00692222
-0.000491913
0.00672022
-0.000479935
0.00647353
-0.000464797
0.00618194
-0.000446602
0.00584591
-0.000425484
0.00546618
-0.000401548
0.00504367
-0.000374825
0.00457927
-0.000345273
0.0040734
-0.00031278
0.00352549
-0.000277147
0.00293335
-0.00023806
0.00229264
-0.000195021
0.00159653
-0.000147273
0.000835532
-9.37052e-05
-3.28515e-05
0.00614723
-0.000125509
0.00650022
-0.000212581
0.00682953
-0.000325041
0.00706054
-0.000393377
0.00720717
-0.000428703
0.00730283
-0.000446849
0.00736355
-0.000457817
0.00740337
-0.000466202
0.00743158
-0.000474122
0.0074425
-0.000482086
0.0074339
-0.00048929
0.0074072
-0.000495089
0.00735635
-0.000498988
0.00727256
-0.000500266
0.00715165
-0.000498368
0.00698996
-0.000493016
0.00678507
-0.000484108
0.00653536
-0.000471649
0.00624036
-0.00045571
0.0059004
-0.000436388
0.00551631
-0.000413762
0.00508912
-0.000387859
0.00461982
-0.00035864
0.00410889
-0.000325993
0.00355576
-0.000289721
0.00295823
-0.000249504
0.00231193
-0.000204835
0.00160991
-0.000154943
0.000842536
-9.8699e-05
-3.46226e-05
0.00647416
-0.000262954
0.00686631
-0.000378488
0.00713828
-0.000434439
0.00729258
-0.0004483
0.00737972
-0.000447586
0.00743362
-0.000444597
0.00747115
-0.000444081
0.00749569
-0.00044701
0.00751337
-0.000453016
0.00752022
-0.000461169
0.00751022
-0.00047007
0.00748039
-0.000478462
0.00742548
-0.000485332
0.0073389
-0.0004898
0.00721563
-0.000491188
0.00705171
-0.000489063
0.00684439
-0.000483196
0.00659201
-0.000473505
0.00629396
-0.000459995
0.00595052
-0.000442715
0.00556256
-0.000421706
0.00513119
-0.000396974
0.00465748
-0.000368468
0.00414195
-0.00033607
0.00358404
-0.000299577
0.00298153
-0.000258661
0.00232999
-0.00021281
0.00162241
-0.000161243
0.000849068
-0.000102829
-3.60921e-05
0.00691664
-0.00042721
0.00725375
-0.000488316
0.00741997
-0.000491972
0.00748804
-0.000469651
0.00752176
-0.000447422
0.0075432
-0.000432176
0.00756262
-0.000424933
0.00757755
-0.000424648
0.00758764
-0.000429629
0.00758943
-0.00043813
0.00757688
-0.000448412
0.00754463
-0.000458914
0.00748701
-0.000468339
0.00739809
-0.000475634
0.00727269
-0.000479999
0.0071067
-0.00048088
0.00689718
-0.00047794
0.00664238
-0.000471003
0.00634163
-0.00046
0.00599516
-0.000444917
0.00560385
-0.000425747
0.00516888
-0.000402461
0.00469134
-0.000374983
0.00417177
-0.000343181
0.00360962
-0.000306839
0.00300264
-0.00026562
0.00234638
-0.000219004
0.00163375
-0.000166211
0.000854969
-0.000106116
-3.72665e-05
0.00740092
-0.000506971
0.00760024
-0.000560928
0.00765409
-0.000509881
0.00765313
-0.000460535
0.00764576
-0.000426661
0.00764277
-0.000406477
0.0076463
-0.000397384
0.00765202
-0.000396861
0.00765576
-0.000402547
0.0076526
-0.00041232
0.00763658
-0.000424299
0.00760152
-0.000436851
0.00754131
-0.000448604
0.00745001
-0.000458443
0.00732242
-0.000465504
0.00715431
-0.000469159
0.00694265
-0.000468987
0.0066856
-0.000464729
0.00638244
-0.00045624
0.00603338
-0.000443437
0.00563927
-0.000426256
0.00520131
-0.000404622
0.00472058
-0.000378428
0.00419763
-0.000347515
0.00363189
-0.000311651
0.00302108
-0.000270485
0.0023607
-0.000223492
0.00164364
-0.000169895
0.000860102
-0.000108587
-3.81552e-05
0.00801009
-0.000772155
0.00795704
-0.000466886
0.00787486
-0.000436018
0.00780665
-0.000399763
0.00776148
-0.000375422
0.00773614
-0.000362422
0.00772502
-0.000358751
0.00772134
-0.000362311
0.0077186
-0.000371157
0.00771049
-0.000383511
0.00769053
-0.000397773
0.00765215
-0.000412516
0.00758893
-0.000426498
0.00749488
-0.000438671
0.00736474
-0.000448188
0.00719426
-0.000454397
0.00698036
-0.000456824
0.00672113
-0.000455145
0.0064158
-0.00044914
0.00606454
-0.000438657
0.00566817
-0.00042357
0.00522783
-0.000403751
0.00474461
-0.000379051
0.004219
-0.000349281
0.00365039
-0.000314183
0.00303645
-0.000273394
0.00237267
-0.00022638
0.0016519
-0.000172373
0.000864368
-0.000110292
-3.87746e-05
0.00030945
2.12574e-05
0.000593806
6.10339e-05
0.000853913
9.70522e-05
0.00109394
0.000130506
0.00131469
0.000162275
0.00152078
0.000193108
0.00171746
0.000223302
0.00190341
0.000252382
0.00208638
0.000280616
0.00226065
0.000307591
0.00242408
0.000331531
0.00259277
0.000352213
0.00275724
0.000369095
0.00292472
0.000380653
0.00310169
0.000385606
0.00327993
0.000382205
0.00347488
0.000370891
0.00368316
0.000351752
0.00390201
0.000322894
0.0041714
0.00028747
0.00449409
0.00025069
0.00484557
0.000214914
0.00522875
0.000183894
0.00563777
0.000164049
0.00604949
0.000162078
0.00643845
0.000184594
0.00679207
0.000236638
0.00709746
0.00031996
0.00735233
0.000433103
0.000572693
0.00710634
0.000317994
2.18551e-05
0.00061385
6.29624e-05
0.000885356
0.00010039
0.00113566
0.000135087
0.00136869
0.000168053
0.00158928
0.000200035
0.00179652
0.000231054
0.00199255
0.000260895
0.00219245
0.000290312
0.00238483
0.000318433
0.00256272
0.000342821
0.00274771
0.000363761
0.00293741
0.000381495
0.00313255
0.000393923
0.00333196
0.00039932
0.00353692
0.000396504
0.00376389
0.0003851
0.00400495
0.000365211
0.004266
0.000335928
0.0045663
0.000299053
0.00490662
0.000259611
0.00527823
0.000221345
0.00567567
0.000188412
0.0060891
0.000166812
0.00649213
0.00016244
0.00686783
0.000180364
0.00720336
0.000222933
0.00748668
0.000292729
0.00772753
0.000393728
0.000511362
0.00789423
0.000327726
2.25529e-05
0.00063506
6.49393e-05
0.000917433
0.000103429
0.00117891
0.000139091
0.0014244
0.000173039
0.0016564
0.000205795
0.0018753
0.00023749
0.00208716
0.000268377
0.00230433
0.000298813
0.00251172
0.00032752
0.00270543
0.000352501
0.00291095
0.00037413
0.00312668
0.000392517
0.0033469
0.0004056
0.00357399
0.000411621
0.00381274
0.000409485
0.0040715
0.000398536
0.00435075
0.000378957
0.00464779
0.000350065
0.00496215
0.000312243
0.0053164
0.000270237
0.00570619
0.000229815
0.00611481
0.000195685
0.00653111
0.000172065
0.00692387
0.000163579
0.00727679
0.000174094
0.00757411
0.000205137
0.00780681
0.00026054
0.00798759
0.000343272
0.000416058
0.00812538
0.000342185
2.33733e-05
0.000659574
6.69763e-05
0.000949589
0.000106079
0.00122233
0.00014236
0.00148073
0.000177161
0.00172366
0.000210644
0.00195616
0.000243002
0.00218516
0.000274623
0.00241624
0.000305445
0.0026392
0.000334506
0.00285555
0.00036057
0.00308294
0.000383228
0.00332071
0.00040196
0.00356657
0.000415449
0.00382384
0.00042225
0.00409528
0.000421068
0.00438404
0.000410903
0.00469769
0.000391927
0.0050208
0.00036452
0.00535315
0.000328351
0.00572589
0.000286088
0.00612118
0.000243674
0.00653548
0.000206979
0.00695377
0.000180178
0.00733107
0.000166706
0.00765483
0.000169423
0.00791462
0.000189816
0.00811293
0.000228855
0.00826996
0.000283971
0.00031461
0.00840015
0.000356582
2.38314e-05
0.000684266
6.82805e-05
0.000982772
0.000108159
0.00126692
0.000145156
0.00153772
0.000180538
0.0017925
0.000214484
0.00203923
0.000247323
0.00228375
0.000279433
0.00252831
0.000310579
0.00276953
0.00033999
0.00301015
0.000366718
0.00325821
0.000390001
0.00351612
0.000409123
0.00378673
0.00042315
0.00407309
0.000430894
0.00437631
0.00043099
0.00469059
0.000421747
0.00502211
0.000403114
0.00536878
0.000376996
0.00573825
0.000343789
0.00613148
0.000304706
0.00652215
0.000263119
0.00693485
0.000223867
0.0073471
0.000193153
0.00770494
0.000174679
0.00800384
0.000169891
0.0082412
0.000179493
0.00842413
0.000201467
0.00856886
0.000231829
0.000235498
0.00868443
0.000365229
2.39055e-05
0.000705391
6.8845e-05
0.00101838
0.000109686
0.0013141
0.000147451
0.00159523
0.000183124
0.00186206
0.000217271
0.00212274
0.000250382
0.00238226
0.000282746
0.00264191
0.000314071
0.00290153
0.000343676
0.00316346
0.00037077
0.00343092
0.000394408
0.00370841
0.000413801
0.00400244
0.000428386
0.0043165
0.000437209
0.00465184
0.000439074
0.00498796
0.000431767
0.00532557
0.000414144
0.0056946
0.000388782
0.00609667
0.000357635
0.00650652
0.000321576
0.00690657
0.00028257
0.00731377
0.000244024
0.00770713
0.000211529
0.00804666
0.000188975
0.00833038
0.000177479
0.00855958
0.000176787
0.00873955
0.000183974
0.00888189
0.000195779
0.000183658
0.00899048
0.0003737
2.41299e-05
0.000726215
6.94852e-05
0.00105431
0.000110742
0.00136148
0.000148848
0.00165266
0.000184688
0.00193156
0.000218932
0.0022056
0.000252104
0.00247957
0.000284484
0.00275447
0.000315791
0.00303158
0.000345428
0.00331372
0.000372729
0.00359904
0.000396467
0.00389317
0.000415794
0.00420876
0.000430807
0.00454784
0.000440731
0.00491075
0.000444184
0.00526875
0.000439466
0.00561662
0.000424653
0.00600299
0.000401091
0.00642185
0.000371969
0.00684138
0.000338462
0.0072539
0.000302062
0.00765601
0.000266017
0.00803244
0.000234141
0.00835999
0.000209298
0.0086359
0.000192676
0.00886491
0.000183597
0.00904969
0.000179871
0.00919716
0.000179276
0.000158655
0.00930685
0.000388125
2.4484e-05
0.000749728
7.01059e-05
0.00108841
0.00011125
0.00140699
0.000149361
0.00170903
0.000185212
0.00199968
0.000219363
0.00228639
0.000252382
0.00257418
0.000284568
0.00286377
0.000315661
0.00315757
0.00034515
0.00346073
0.000372649
0.00376258
0.000396653
0.00406697
0.000415643
0.00440075
0.000430462
0.00476179
0.000441191
0.00514029
0.000445793
0.00551907
0.000442925
0.00589204
0.000431522
0.00629143
0.000411674
0.00671445
0.000385729
0.00713673
0.000355564
0.00755073
0.000322748
0.0079486
0.000289817
0.00831781
0.000259548
0.00864187
0.000234098
0.00891639
0.000214348
0.00914835
0.000199726
0.00934159
0.000189128
0.0094992
0.000181111
0.000156879
0.00961601
0.000404851
2.46514e-05
0.000772488
7.01772e-05
0.00111997
0.000110963
0.00145049
0.000148956
0.0017631
0.000184646
0.00206484
0.000218486
0.00236374
0.000251162
0.00266449
0.000282945
0.00296763
0.000313581
0.00327656
0.000342657
0.00359836
0.000369895
0.00391709
0.000394092
0.00423211
0.000413431
0.00457968
0.000428223
0.0049565
0.00043914
0.0053437
0.000444608
0.00573743
0.000443234
0.00613426
0.000434553
0.0065437
0.000418741
0.00696504
0.000397101
0.00738586
0.000371155
0.00779726
0.000342533
0.00819053
0.000313278
0.00855556
0.000285516
0.00888087
0.000260845
0.00916034
0.000239879
0.00939844
0.000222542
0.0096011
0.000208436
0.00977097
0.000196606
0.000171833
0.0098983
0.000418902
2.45493e-05
0.00079388
6.98199e-05
0.00115034
0.000110245
0.00149148
0.000147787
0.0018137
0.000182967
0.00212609
0.000216293
0.00243665
0.000248441
0.00274896
0.000279594
0.00306397
0.000309518
0.00338539
0.000337878
0.00371835
0.000364292
0.00405317
0.000388029
0.00438786
0.000407882
0.00474654
0.000423296
0.00512964
0.000434406
0.00552338
0.000440544
0.00592549
0.000440785
0.00633344
0.000434752
0.00674854
0.000422613
0.00716848
0.000405188
0.00758557
0.000383661
0.00799201
0.000359446
0.00837976
0.000334203
0.0087406
0.000309527
0.00906688
0.000286523
0.00935317
0.000265873
0.00960027
0.000247953
0.00981317
0.000232637
0.00999532
0.000219368
0.000195698
0.010134
0.00042899
2.4178e-05
0.000815983
6.90033e-05
0.00118114
0.000109033
0.00152936
0.000145821
0.00186031
0.000180206
0.00218283
0.000212827
0.00250374
0.000244213
0.00282587
0.000274496
0.00315093
0.0003035
0.00348218
0.000330935
0.00382234
0.000356424
0.00416924
0.00037938
0.00452245
0.00039901
0.00489072
0.000414762
0.00527623
0.000426365
0.0056734
0.000433334
0.00607916
0.000435133
0.00649079
0.000431525
0.00690647
0.000422656
0.00732274
0.000409106
0.0077338
0.000391778
0.00813326
0.000371837
0.00851434
0.000350566
0.00887033
0.000329074
0.00919552
0.000308297
0.009486
0.000289061
0.00974117
0.000271812
0.00996381
0.00025658
0.0101568
0.000243138
0.00022118
0.0103058
0.000436881
2.36853e-05
0.000835968
6.76812e-05
0.00120914
0.000106953
0.00156326
0.000142868
0.00190236
0.00017636
0.00223378
0.000208083
0.00256311
0.000238482
0.00289325
0.00026769
0.00322639
0.000295588
0.00356526
0.000321931
0.00391201
0.00034638
0.00426669
0.000368457
0.00462977
0.000387587
0.00500459
0.000403277
0.00539216
0.000415156
0.00578993
0.000422835
0.00619523
0.000425975
0.00660525
0.00042444
0.00701712
0.000418368
0.00742679
0.000408191
0.00782932
0.000394593
0.00821968
0.000378473
0.00859237
0.000360755
0.00894185
0.000342323
0.00926353
0.000324081
0.00955453
0.000306735
0.00981402
0.000290687
0.0100433
0.000276109
0.0102441
0.000262966
0.000242721
0.0104006
0.000444027
2.30559e-05
0.000851704
6.59117e-05
0.0012319
0.000104145
0.00159226
0.00013901
0.00193858
0.000171442
0.00227721
0.000202076
0.0026131
0.000231306
0.00294936
0.00025927