/*--------------------------------*- C++ -*----------------------------------*\
| =========                 |                                                 |
| \\      /  F ield         | OpenFOAM: The Open Source CFD Toolbox           |
|  \\    /   O peration     | Version:  2006                                  |
|   \\  /    A nd           | Website:  www.openfoam.com                      |
|    \\/     M anipulation  |                                                 |
\*---------------------------------------------------------------------------*/
FoamFile
{
    version     2.0;
    format      ascii;
    class       pointVectorField;
    location    "1";
    object      pointDisplacement;
}
// * * * * * * * * * * * * * * * * * * * * * * * * * * * * * * * * * * * * * //

dimensions      [0 1 0 0 0 0 0];


internalField   nonuniform List<vector> 
5828
(
(0 0 0)
(0.00528546 0 0)
(0.0101092 0 0)
(0.0146069 0 0)
(0.0188969 0 0)
(0.0230526 0 0)
(0.0271147 0 0)
(0.0310942 0 0)
(0.0349761 0 0)
(0.0387229 0 0)
(0.0422787 0 0)
(0.0455734 0 0)
(0.0485262 0 0)
(0.0510493 0 0)
(0.0530534 0 0)
(0.0544517 0 0)
(0.0551657 0 0)
(0.0551299 0 0)
(0.0542949 0 0)
(0.0526306 0 0)
(0.0501307 0 0)
(0.0468116 0 0)
(0.0427131 0 0)
(0.037899 0 0)
(0.0324687 0 0)
(0.026565 0 0)
(0.0203806 0 0)
(0.0141972 0 0)
(0.00846259 0 0)
(0.00403243 0 0)
(-3.67761e-15 0 1.52946e-21)
(0 0 0)
(0.00527031 2.23113e-05 0)
(0.0100836 4.38056e-05 0)
(0.0145744 6.5982e-05 0)
(0.0188597 9.02259e-05 0)
(0.0230132 0.000117605 0)
(0.0270757 0.000149081 0)
(0.0310591 0.000185677 0)
(0.0349487 0.000228347 0)
(0.0387077 0.000278034 0)
(0.0422806 0.000335502 0)
(0.045598 0.000401484 0)
(0.04858 0.000476788 0)
(0.0511397 0.00056212 0)
(0.0531883 0.000658117 0)
(0.0546399 0.000765359 0)
(0.0554166 0.000884464 0)
(0.0554531 0.00101624 0)
(0.0547016 0.00116113 0)
(0.0531337 0.00132011 0)
(0.0507447 0.00149552 0)
(0.047554 0.00168984 0)
(0.043606 0.00190597 0)
(0.0389688 0.00214811 0)
(0.0337448 0.00242336 0)
(0.0280862 0.00274077 0)
(0.0222 0.00311129 0)
(0.0163883 0.00354892 0)
(0.01115 0.00405976 0)
(0.00738789 0.00458379 0)
(0.00457883 0.00500342 -3.57761e-14)
(0 0 0)
(0.00525708 4.4431e-05 0)
(0.0100633 8.72586e-05 0)
(0.0145524 0.000131449 0)
(0.0188403 0.000179668 0)
(0.0230004 0.000234093 0)
(0.0270756 0.000296731 0)
(0.0310798 0.000369568 0)
(0.0349998 0.000454498 0)
(0.0388002 0.000553455 0)
(0.0424268 0.000667906 0)
(0.0458128 0.000799263 0)
(0.048881 0.000949196 0)
(0.0515469 0.00111911 0)
(0.0537242 0.00131028 0)
(0.0553297 0.00152379 0)
(0.0562875 0.00176063 0)
(0.0565345 0.00202141 0)
(0.0560265 0.00230787 0)
(0.054739 0.00262254 0)
(0.0526724 0.00296933 0)
(0.0498544 0.00335306 0)
(0.0463385 0.00377884 0)
(0.0422085 0.00425497 0)
(0.0375837 0.00479078 0)
(0.0326411 0.00539765 0)
(0.0276223 0.00608946 0)
(0.0228592 0.00687892 0)
(0.0189135 0.00777099 0)
(0.0167744 0.00870869 0)
(0.0149462 0.0093383 2.85413e-13)
(0 0 0)
(0.00526411 6.62501e-05 0)
(0.0100803 0.000130142 0)
(0.0145825 0.000196045 0)
(0.0188881 0.000267791 0)
(0.0230721 0.000348739 0)
(0.0271798 0.000441998 0)
(0.0312271 0.000550423 0)
(0.035204 0.000676801 0)
(0.039077 0.000823841 0)
(0.042794 0.000993813 0)
(0.0462933 0.00118902 0)
(0.0495024 0.00141187 0)
(0.0523407 0.00166444 0)
(0.0547263 0.00194857 0)
(0.0565804 0.00226587 0)
(0.0578322 0.00261773 0)
(0.0584235 0.00300514 0)
(0.0583157 0.00343058 0)
(0.0574904 0.00389764 0)
(0.0559542 0.00441124 0)
(0.0537438 0.00497691 0)
(0.050925 0.0056011 0)
(0.0476025 0.006294 0)
(0.0439259 0.00706686 0)
(0.0401144 0.00793328 0)
(0.0364621 0.00890565 0)
(0.0333309 0.00998531 0)
(0.0312531 0.0111505 0)
(0.0312488 0.0123089 0)
(0.0308136 0.013025 2.71305e-15)
(0 0 0)
(0.00527794 8.75781e-05 0)
(0.0101104 0.00017207 0)
(0.0146317 0.000259183 0)
(0.0189625 0.000353959 0)
(0.0231818 0.000460876 0)
(0.0273361 0.000584018 0)
(0.0314439 0.000727102 0)
(0.0354988 0.000893728 0)
(0.0394711 0.00108714 0)
(0.0433134 0.00131064 0)
(0.0469698 0.00156761 0)
(0.0503729 0.00186095 0)
(0.0534481 0.00219335 0)
(0.05612 0.00256725 0)
(0.0583162 0.00298476 0)
(0.0599728 0.00344774 0)
(0.0610393 0.003958 0)
(0.0614847 0.00451823 0)
(0.0612998 0.0051327 0)
(0.0604996 0.00580617 0)
(0.0591303 0.00654345 0)
(0.0572747 0.00735164 0)
(0.055059 0.008241 0)
(0.052661 0.0092233 0)
(0.0503355 0.0103106 0)
(0.0484446 0.0115097 0)
(0.047413 0.0128066 0)
(0.0476956 0.0141476 0)
(0.0501906 0.0154019 0)
(0.0512248 0.0160854 -7.17645e-13)
(0 0 0)
(0.00529786 0.000108275 0)
(0.0101526 0.000212713 0)
(0.0146993 0.000320309 0)
(0.0190631 0.00043738 0)
(0.0233272 0.000569414 0)
(0.0275404 0.000721345 0)
(0.0317242 0.000897758 0)
(0.0358764 0.00110302 0)
(0.039973 0.00134112 0)
(0.043974 0.00161624 0)
(0.0478283 0.00193249 0)
(0.0514749 0.00229336 0)
(0.0548474 0.00270216 0)
(0.0578785 0.0031619 0)
(0.0605048 0.00367519 0)
(0.0626706 0.00424422 0)
(0.064335 0.00487126 0)
(0.0654765 0.00555918 0)
(0.0660982 0.00631248 0)
(0.0662264 0.00713539 0)
(0.0659197 0.00803192 0)
(0.0652802 0.00900905 0)
(0.0644632 0.0100765 0)
(0.0636758 0.0112432 0)
(0.0631843 0.0125141 0)
(0.0633861 0.0138878 0)
(0.064788 0.0153392 0)
(0.0678134 0.0167983 0)
(0.0730205 0.0180996 0)
(0.0753983 0.0187376 1.21761e-21)
(0 0 0)
(0.00532215 0.000128242 0)
(0.0102036 0.000251861 0)
(0.0147825 0.000379132 0)
(0.0191872 0.000517578 0)
(0.0235049 0.000673612 0)
(0.0277879 0.000853 0)
(0.032062 0.00106113 0)
(0.03633 0.00130313 0)
(0.0405745 0.00158385 0)
(0.0447629 0.00190812 0)
(0.0488508 0.00228054 0)
(0.0527852 0.00270526 0)
(0.0565091 0.00318615 0)
(0.0599658 0.00372684 0)
(0.0631022 0.00433036 0)
(0.0658731 0.00499912 0)
(0.0682485 0.00573553 0)
(0.0702188 0.0065425 0)
(0.0718042 0.00742469 0)
(0.0730437 0.00838531 0)
(0.0740099 0.00942726 0)
(0.074827 0.010557 0)
(0.0756701 0.0117815 0)
(0.0767847 0.0131054 0)
(0.0784664 0.0145274 0)
(0.0810889 0.016035 0)
(0.0851997 0.0175955 0)
(0.0912354 0.0191358 0)
(0.0993127 0.020471 0)
(0.103052 0.0211559 -1.70999e-12)
(0 0 0)
(0.00535019 0.000147325 0)
(0.0102624 0.000289305 0)
(0.0148795 0.000435424 0)
(0.0193326 0.000594255 0)
(0.0237119 0.000773082 0)
(0.0280746 0.000978467 0)
(0.0324515 0.00121654 0)
(0.0368511 0.00149313 0)
(0.0412634 0.00181383 0)
(0.0456638 0.00218407 0)
(0.0500161 0.00260899 0)
(0.0542767 0.00309323 0)
(0.0583987 0.00364107 0)
(0.0623387 0.00425688 0)
(0.066056 0.00494409 0)
(0.0695168 0.00570502 0)
(0.0727045 0.00654211 0)
(0.0756267 0.00745862 0)
(0.0783187 0.00845857 0)
(0.0808324 0.00954348 0)
(0.0832675 0.0107161 0)
(0.0857726 0.011981 0)
(0.0885294 0.0133405 0)
(0.091803 0.0147943 0)
(0.0959386 0.0163349 0)
(0.101298 0.0179407 0)
(0.108367 0.0195687 0)
(0.11755 0.0211392 0)
(0.128615 0.0224634 0)
(0.133905 0.0231527 -3.99687e-13)
(0 0 0)
(0.00538243 0.000165403 0)
(0.0103298 0.000324803 0)
(0.0149895 0.000488756 0)
(0.0194958 0.000666779 0)
(0.0239432 0.000866976 0)
(0.0283936 0.00109664 0)
(0.0328832 0.00136255 0)
(0.037427 0.00167119 0)
(0.0420229 0.00202878 0)
(0.0466549 0.00244133 0)
(0.0512966 0.00291446 0)
(0.0559139 0.00345319 0)
(0.0604737 0.00406243 0)
(0.064947 0.00474709 0)
(0.0693048 0.00551056 0)
(0.0735271 0.00635506 0)
(0.0776135 0.00728307 0)
(0.0815955 0.00829837 0)
(0.0855195 0.00940301 0)
(0.0894566 0.0105976 0)
(0.0935354 0.0118849 0)
(0.0979228 0.0132656 0)
(0.10283 0.0147379 0)
(0.108523 0.0162959 0)
(0.115358 0.0179244 0)
(0.123724 0.0195935 0)
(0.133961 0.0212437 0)
(0.146356 0.0227793 0)
(0.160399 0.024007 0)
(0.167162 0.0246413 -2.29902e-13)
(0 0 0)
(0.00541802 0.000182427 0)
(0.0104041 0.000358202 0)
(0.01511 0.000538857 0)
(0.0196739 0.000734769 0)
(0.0241943 0.000954778 0)
(0.0287385 0.00120682 0)
(0.0333486 0.00149828 0)
(0.0380461 0.00183617 0)
(0.0428372 0.00222724 0)
(0.0477159 0.00267808 0)
(0.0526659 0.00319474 0)
(0.0576651 0.00378267 0)
(0.062695 0.00444741 0)
(0.0677382 0.00519366 0)
(0.0727807 0.00602476 0)
(0.0778204 0.00694309 0)
(0.0828768 0.00795133 0)
(0.0880017 0.00905291 0)
(0.0932569 0.0102479 0)
(0.0987471 0.0115369 0)
(0.104621 0.0129204 0)
(0.111058 0.0143954 0)
(0.118307 0.015957 0)
(0.126659 0.0175936 0)
(0.136436 0.0192808 0)
(0.148014 0.0209761 0)
(0.1616 0.0226019 0)
(0.177258 0.0240376 0)
(0.194084 0.0250811 0)
(0.202244 0.0255824 -5.55309e-13)
(0 0 0)
(0.00545644 0.000198372 0)
(0.0104843 0.000389464 0)
(0.0152395 0.00058567 0)
(0.0198642 0.000798139 0)
(0.0244617 0.00103636 0)
(0.0291044 0.00130884 0)
(0.0338403 0.00162347 0)
(0.0386981 0.00198769 0)
(0.0436924 0.00240868 0)
(0.048828 0.00289358 0)
(0.0540996 0.00344883 0)
(0.0594972 0.00408021 0)
(0.0650149 0.00479326 0)
(0.0706499 0.00559269 0)
(0.0764087 0.00648233 0)
(0.0823061 0.00746428 0)
(0.0883829 0.00854092 0)
(0.0947071 0.00971427 0)
(0.101367 0.0109838 0)
(0.108498 0.0123495 0)
(0.116274 0.0138089 0)
(0.124909 0.0153559 0)
(0.134665 0.0169817 0)
(0.145859 0.0186688 0)
(0.158798 0.0203836 0)
(0.173784 0.0220687 0)
(0.190881 0.0236277 0)
(0.209798 0.0249149 0)
(0.229047 0.0257362 0)
(0.238198 0.0260593 -1.12497e-22)
(0 0 0)
(0.00549704 0.000213154 0)
(0.010569 0.000418417 0)
(0.0153755 0.000628932 0)
(0.0200633 0.000856521 0)
(0.02474 0.00111123 0)
(0.0294835 0.00140206 0)
(0.0343482 0.00173732 0)
(0.0393689 0.00212475 0)
(0.0445703 0.00257202 0)
(0.0499687 0.00308668 0)
(0.0555678 0.00367527 0)
(0.0613703 0.00434373 0)
(0.0673833 0.00509755 0)
(0.0736222 0.00594175 0)
(0.0801119 0.00688016 0)
(0.0868841 0.00791426 0)
(0.0940023 0.00904593 0)
(0.101556 0.0102761 0)
(0.109666 0.0116034 0)
(0.118492 0.013026 0)
(0.128234 0.0145392 0)
(0.139153 0.0161338 0)
(0.151538 0.0177963 0)
(0.165714 0.0195034 0)
(0.181995 0.0212142 0)
(0.20058 0.0228585 0)
(0.221316 0.0243248 0)
(0.243446 0.0254568 0)
(0.26477 0.0260945 0)
(0.274612 0.0262966 -7.95702e-13)
(0 0 0)
(0.00553917 0.000226738 0)
(0.0106566 0.000444992 0)
(0.015516 0.000668539 0)
(0.0202679 0.000909768 0)
(0.0250245 0.00117919 0)
(0.0298695 0.0014862 0)
(0.0348635 0.00183949 0)
(0.0400487 0.00224711 0)
(0.0454587 0.00271707 0)
(0.0511183 0.0032569 0)
(0.0570419 0.00387315 0)
(0.063247 0.00457214 0)
(0.0697538 0.00535923 0)
(0.0765935 0.00623925 0)
(0.0838094 0.00721583 0)
(0.0914511 0.00828991 0)
(0.0996063 0.00946251 0)
(0.108391 0.0107338 0)
(0.117953 0.012101 0)
(0.128479 0.0135592 0)
(0.140201 0.0151017 0)
(0.153415 0.0167167 0)
(0.168464 0.0183858 0)
(0.185684 0.0200804 0)
(0.205406 0.0217549 0)
(0.227711 0.0233331 0)
(0.252201 0.0247037 0)
(0.277588 0.0257213 0)
(0.300874 0.0262542 0)
(0.311312 0.0264287 -6.30503e-14)
(0 0 0)
(0.00558256 0.00023916 0)
(0.0107467 0.000469261 0)
(0.0156598 0.000704595 0)
(0.0204761 0.000958016 0)
(0.0253123 0.00124039 0)
(0.0302575 0.00156144 0)
(0.0353794 0.00193018 0)
(0.0407274 0.00235491 0)
(0.0463416 0.00284362 0)
(0.0522533 0.00340363 0)
(0.0584915 0.00404182 0)
(0.0650898 0.00476485 0)
(0.0720781 0.00557751 0)
(0.0795015 0.00648418 0)
(0.0874206 0.007488 0)
(0.0959071 0.00858968 0)
(0.105071 0.00978934 0)
(0.115049 0.0110851 0)
(0.12601 0.0124723 0)
(0.138172 0.0139438 0)
(0.151813 0.0154896 0)
(0.167252 0.017095 0)
(0.18487 0.0187368 0)
(0.205047 0.0203822 0)
(0.228129 0.0219834 0)
(0.254116 0.0234684 0)
(0.282465 0.0247488 0)
(0.311385 0.0257161 0)
(0.336945 0.026237 0)
(0.348144 0.0263899 4.63809e-13)
(0 0 0)
(0.00562658 0.0002504 0)
(0.010838 0.000491185 0)
(0.0158049 0.000737051 0)
(0.0206851 0.00100121 0)
(0.0255988 0.00129476 0)
(0.0306412 0.00162773 0)
(0.0358873 0.00200937 0)
(0.041392 0.00244799 0)
(0.047201 0.00295145 0)
(0.0533545 0.00352703 0)
(0.0598946 0.00418179 0)
(0.0668665 0.00492219 0)
(0.0743107 0.00575251 0)
(0.082287 0.00667664 0)
(0.0908718 0.00769707 0)
(0.100156 0.00881384 0)
(0.110265 0.0100257 0)
(0.121354 0.0113287 0)
(0.133615 0.0127159 0)
(0.147297 0.0141778 0)
(0.162704 0.0157006 0)
(0.18018 0.0172642 0)
(0.200121 0.0188413 0)
(0.22294 0.0203945 0)
(0.248984 0.0218737 0)
(0.27824 0.0232179 0)
(0.310242 0.0243811 0)
(0.343055 0.0253522 0)
(0.372065 0.0260321 0)
(0.384834 0.0262621 -6.92234e-14)
(0 0 0)
(0.00567109 0.000260562 0)
(0.0109304 0.000510976 0)
(0.0159511 0.000766224 0)
(0.0208947 0.00103978 0)
(0.025885 0.00134296 0)
(0.0310223 0.00168595 0)
(0.0363865 0.00207799 0)
(0.0420388 0.00252736 0)
(0.0480328 0.00304192 0)
(0.0544156 0.0036287 0)
(0.061239 0.00429458 0)
(0.0685592 0.00504574 0)
(0.0764275 0.00588596 0)
(0.0849178 0.00681858 0)
(0.0941188 0.0078451 0)
(0.104134 0.00896434 0)
(0.115103 0.0101736 0)
(0.127199 0.0114668 0)
(0.140629 0.0128346 0)
(0.155663 0.014264 0)
(0.172603 0.0157362 0)
(0.191805 0.0172255 0)
(0.213643 0.0186976 0)
(0.238508 0.0201079 0)
(0.266667 0.0213987 0)
(0.298001 0.0225011 0)
(0.331926 0.0233483 0)
(0.366088 0.0238674 0)
(0.395181 0.0237751 0)
(0.421321 0.0261868 9.26442e-23)
(0 0 0)
(0.00528546 0 0)
(0.0101092 0 0)
(0.0146069 0 0)
(0.0188969 0 0)
(0.0230526 0 0)
(0.0271147 0 0)
(0.0310942 0 0)
(0.0349761 0 0)
(0.0387229 0 0)
(0.0422787 0 0)
(0.0455734 0 0)
(0.0485262 0 0)
(0.0510493 0 0)
(0.0530534 0 0)
(0.0544517 0 0)
(0.0551657 0 0)
(0.0551299 0 0)
(0.0542949 0 0)
(0.0526306 0 0)
(0.0501307 0 0)
(0.0468116 0 0)
(0.0427131 0 0)
(0.037899 0 0)
(0.0324687 0 0)
(0.026565 0 0)
(0.0203806 0 0)
(0.0141972 0 0)
(0.00846259 0 0)
(0.00403243 0 0)
(-4.09488e-16 0 2.29645e-22)
(0 0 0)
(0.00527031 2.23113e-05 0)
(0.0100836 4.38056e-05 0)
(0.0145744 6.5982e-05 0)
(0.0188597 9.02259e-05 0)
(0.0230132 0.000117605 0)
(0.0270757 0.000149081 0)
(0.0310591 0.000185677 0)
(0.0349487 0.000228347 0)
(0.0387077 0.000278034 0)
(0.0422806 0.000335502 0)
(0.045598 0.000401484 0)
(0.04858 0.000476788 0)
(0.0511397 0.00056212 0)
(0.0531883 0.000658117 0)
(0.0546399 0.000765359 0)
(0.0554166 0.000884464 0)
(0.0554531 0.00101624 0)
(0.0547016 0.00116113 0)
(0.0531337 0.00132011 0)
(0.0507447 0.00149552 0)
(0.047554 0.00168984 0)
(0.043606 0.00190597 0)
(0.0389688 0.00214811 0)
(0.0337448 0.00242336 0)
(0.0280862 0.00274077 0)
(0.0222 0.00311129 0)
(0.0163883 0.00354892 0)
(0.01115 0.00405976 0)
(0.00738789 0.00458379 0)
(0.00457882 0.00500342 -3.57761e-14)
(0 0 0)
(0.00525708 4.4431e-05 0)
(0.0100633 8.72586e-05 0)
(0.0145524 0.000131449 0)
(0.0188403 0.000179668 0)
(0.0230004 0.000234093 0)
(0.0270756 0.000296731 0)
(0.0310798 0.000369568 0)
(0.0349998 0.000454498 0)
(0.0388002 0.000553455 0)
(0.0424268 0.000667906 0)
(0.0458128 0.000799263 0)
(0.048881 0.000949196 0)
(0.0515469 0.00111911 0)
(0.0537242 0.00131028 0)
(0.0553297 0.00152379 0)
(0.0562875 0.00176063 0)
(0.0565345 0.00202141 0)
(0.0560265 0.00230787 0)
(0.054739 0.00262254 0)
(0.0526724 0.00296933 0)
(0.0498544 0.00335306 0)
(0.0463385 0.00377884 0)
(0.0422085 0.00425497 0)
(0.0375837 0.00479078 0)
(0.0326411 0.00539765 0)
(0.0276223 0.00608946 0)
(0.0228592 0.00687892 0)
(0.0189135 0.00777099 0)
(0.0167744 0.00870869 0)
(0.0149462 0.00933831 2.85413e-13)
(0 0 0)
(0.00526411 6.62501e-05 0)
(0.0100803 0.000130142 0)
(0.0145825 0.000196045 0)
(0.0188881 0.000267791 0)
(0.0230721 0.000348739 0)
(0.0271798 0.000441998 0)
(0.0312271 0.000550423 0)
(0.035204 0.000676801 0)
(0.039077 0.000823841 0)
(0.042794 0.000993813 0)
(0.0462933 0.00118902 0)
(0.0495024 0.00141187 0)
(0.0523407 0.00166444 0)
(0.0547263 0.00194857 0)
(0.0565804 0.00226587 0)
(0.0578322 0.00261773 0)
(0.0584235 0.00300514 0)
(0.0583157 0.00343058 0)
(0.0574904 0.00389764 0)
(0.0559542 0.00441124 0)
(0.0537438 0.00497691 0)
(0.050925 0.0056011 0)
(0.0476025 0.006294 0)
(0.0439259 0.00706686 0)
(0.0401144 0.00793328 0)
(0.0364621 0.00890565 0)
(0.0333309 0.00998531 0)
(0.0312531 0.0111505 0)
(0.0312488 0.0123089 0)
(0.0308136 0.013025 2.71305e-15)
(0 0 0)
(0.00527794 8.75781e-05 0)
(0.0101104 0.00017207 0)
(0.0146317 0.000259183 0)
(0.0189625 0.000353959 0)
(0.0231818 0.000460876 0)
(0.0273361 0.000584018 0)
(0.0314439 0.000727102 0)
(0.0354988 0.000893728 0)
(0.0394711 0.00108714 0)
(0.0433134 0.00131064 0)
(0.0469698 0.00156761 0)
(0.0503729 0.00186095 0)
(0.0534481 0.00219335 0)
(0.05612 0.00256725 0)
(0.0583162 0.00298476 0)
(0.0599728 0.00344774 0)
(0.0610393 0.003958 0)
(0.0614847 0.00451823 0)
(0.0612998 0.0051327 0)
(0.0604996 0.00580617 0)
(0.0591303 0.00654345 0)
(0.0572747 0.00735164 0)
(0.055059 0.008241 0)
(0.052661 0.0092233 0)
(0.0503355 0.0103106 0)
(0.0484446 0.0115097 0)
(0.047413 0.0128066 0)
(0.0476956 0.0141476 0)
(0.0501906 0.0154019 0)
(0.0512248 0.0160854 -7.17645e-13)
(0 0 0)
(0.00529786 0.000108275 0)
(0.0101526 0.000212713 0)
(0.0146993 0.000320309 0)
(0.0190631 0.00043738 0)
(0.0233272 0.000569414 0)
(0.0275404 0.000721345 0)
(0.0317242 0.000897758 0)
(0.0358764 0.00110302 0)
(0.039973 0.00134112 0)
(0.043974 0.00161624 0)
(0.0478283 0.00193249 0)
(0.0514749 0.00229336 0)
(0.0548474 0.00270216 0)
(0.0578785 0.0031619 0)
(0.0605048 0.00367519 0)
(0.0626706 0.00424422 0)
(0.064335 0.00487126 0)
(0.0654765 0.00555918 0)
(0.0660982 0.00631248 0)
(0.0662264 0.00713539 0)
(0.0659197 0.00803192 0)
(0.0652802 0.00900905 0)
(0.0644632 0.0100765 0)
(0.0636758 0.0112432 0)
(0.0631843 0.0125141 0)
(0.0633861 0.0138878 0)
(0.064788 0.0153392 0)
(0.0678134 0.0167983 0)
(0.0730205 0.0180996 0)
(0.0753983 0.0187376 1.13872e-21)
(0 0 0)
(0.00532215 0.000128242 0)
(0.0102036 0.000251861 0)
(0.0147825 0.000379132 0)
(0.0191872 0.000517578 0)
(0.0235049 0.000673612 0)
(0.0277879 0.000853 0)
(0.032062 0.00106113 0)
(0.03633 0.00130313 0)
(0.0405745 0.00158385 0)
(0.0447629 0.00190812 0)
(0.0488508 0.00228054 0)
(0.0527852 0.00270526 0)
(0.0565091 0.00318615 0)
(0.0599658 0.00372684 0)
(0.0631022 0.00433036 0)
(0.0658731 0.00499912 0)
(0.0682485 0.00573553 0)
(0.0702188 0.0065425 0)
(0.0718042 0.00742469 0)
(0.0730437 0.00838531 0)
(0.0740099 0.00942726 0)
(0.074827 0.010557 0)
(0.0756701 0.0117815 0)
(0.0767847 0.0131054 0)
(0.0784664 0.0145274 0)
(0.0810889 0.016035 0)
(0.0851997 0.0175955 0)
(0.0912354 0.0191358 0)
(0.0993127 0.020471 0)
(0.103052 0.0211559 -1.70999e-12)
(0 0 0)
(0.00535019 0.000147325 0)
(0.0102624 0.000289305 0)
(0.0148795 0.000435424 0)
(0.0193326 0.000594255 0)
(0.0237119 0.000773082 0)
(0.0280746 0.000978467 0)
(0.0324515 0.00121654 0)
(0.0368511 0.00149313 0)
(0.0412634 0.00181383 0)
(0.0456638 0.00218407 0)
(0.0500161 0.00260899 0)
(0.0542767 0.00309323 0)
(0.0583987 0.00364107 0)
(0.0623387 0.00425688 0)
(0.066056 0.00494409 0)
(0.0695168 0.00570502 0)
(0.0727045 0.00654211 0)
(0.0756267 0.00745862 0)
(0.0783187 0.00845857 0)
(0.0808324 0.00954348 0)
(0.0832675 0.0107161 0)
(0.0857726 0.011981 0)
(0.0885294 0.0133405 0)
(0.091803 0.0147943 0)
(0.0959386 0.0163349 0)
(0.101298 0.0179407 0)
(0.108367 0.0195687 0)
(0.11755 0.0211392 0)
(0.128615 0.0224634 0)
(0.133905 0.0231527 -3.99687e-13)
(0 0 0)
(0.00538243 0.000165403 0)
(0.0103298 0.000324803 0)
(0.0149895 0.000488756 0)
(0.0194958 0.000666779 0)
(0.0239432 0.000866976 0)
(0.0283936 0.00109664 0)
(0.0328832 0.00136255 0)
(0.037427 0.00167119 0)
(0.0420229 0.00202878 0)
(0.0466549 0.00244133 0)
(0.0512966 0.00291446 0)
(0.0559139 0.00345319 0)
(0.0604737 0.00406243 0)
(0.064947 0.00474709 0)
(0.0693048 0.00551056 0)
(0.0735271 0.00635506 0)
(0.0776135 0.00728307 0)
(0.0815955 0.00829837 0)
(0.0855195 0.00940301 0)
(0.0894566 0.0105976 0)
(0.0935354 0.0118849 0)
(0.0979228 0.0132656 0)
(0.10283 0.0147379 0)
(0.108523 0.0162959 0)
(0.115358 0.0179244 0)
(0.123724 0.0195935 0)
(0.133961 0.0212437 0)
(0.146356 0.0227793 0)
(0.160399 0.024007 0)
(0.167162 0.0246413 -2.29902e-13)
(0 0 0)
(0.00541802 0.000182427 0)
(0.0104041 0.000358202 0)
(0.01511 0.000538857 0)
(0.0196739 0.000734769 0)
(0.0241943 0.000954778 0)
(0.0287385 0.00120682 0)
(0.0333486 0.00149828 0)
(0.0380461 0.00183617 0)
(0.0428372 0.00222724 0)
(0.0477159 0.00267808 0)
(0.0526659 0.00319474 0)
(0.0576651 0.00378267 0)
(0.062695 0.00444741 0)
(0.0677382 0.00519366 0)
(0.0727807 0.00602476 0)
(0.0778204 0.00694309 0)
(0.0828768 0.00795133 0)
(0.0880017 0.00905291 0)
(0.0932569 0.0102479 0)
(0.0987471 0.0115369 0)
(0.104621 0.0129204 0)
(0.111058 0.0143954 0)
(0.118307 0.015957 0)
(0.126659 0.0175936 0)
(0.136436 0.0192808 0)
(0.148014 0.0209761 0)
(0.1616 0.0226019 0)
(0.177258 0.0240376 0)
(0.194084 0.0250811 0)
(0.202244 0.0255824 -5.55309e-13)
(0 0 0)
(0.00545644 0.000198372 0)
(0.0104843 0.000389464 0)
(0.0152395 0.00058567 0)
(0.0198642 0.000798139 0)
(0.0244617 0.00103636 0)
(0.0291044 0.00130884 0)
(0.0338403 0.00162347 0)
(0.0386981 0.00198769 0)
(0.0436924 0.00240868 0)
(0.048828 0.00289358 0)
(0.0540996 0.00344883 0)
(0.0594972 0.00408021 0)
(0.0650149 0.00479326 0)
(0.0706499 0.00559269 0)
(0.0764087 0.00648233 0)
(0.0823061 0.00746428 0)
(0.0883829 0.00854092 0)
(0.0947071 0.00971427 0)
(0.101367 0.0109838 0)
(0.108498 0.0123495 0)
(0.116274 0.0138089 0)
(0.124909 0.0153559 0)
(0.134665 0.0169817 0)
(0.145859 0.0186688 0)
(0.158798 0.0203836 0)
(0.173784 0.0220687 0)
(0.190881 0.0236277 0)
(0.209798 0.0249149 0)
(0.229047 0.0257362 0)
(0.238198 0.0260593 -5.24238e-23)
(0 0 0)
(0.00549704 0.000213154 0)
(0.010569 0.000418417 0)
(0.0153755 0.000628932 0)
(0.0200633 0.000856521 0)
(0.02474 0.00111123 0)
(0.0294835 0.00140206 0)
(0.0343482 0.00173732 0)
(0.0393689 0.00212475 0)
(0.0445703 0.00257202 0)
(0.0499687 0.00308668 0)
(0.0555678 0.00367527 0)
(0.0613703 0.00434373 0)
(0.0673833 0.00509755 0)
(0.0736222 0.00594175 0)
(0.0801119 0.00688016 0)
(0.0868841 0.00791426 0)
(0.0940023 0.00904593 0)
(0.101556 0.0102761 0)
(0.109666 0.0116034 0)
(0.118492 0.013026 0)
(0.128234 0.0145392 0)
(0.139153 0.0161338 0)
(0.151538 0.0177963 0)
(0.165714 0.0195034 0)
(0.181995 0.0212142 0)
(0.20058 0.0228585 0)
(0.221316 0.0243248 0)
(0.243446 0.0254568 0)
(0.26477 0.0260945 0)
(0.274612 0.0262966 -7.95702e-13)
(0 0 0)
(0.00553917 0.000226738 0)
(0.0106566 0.000444992 0)
(0.015516 0.000668539 0)
(0.0202679 0.000909768 0)
(0.0250245 0.00117919 0)
(0.0298695 0.0014862 0)
(0.0348635 0.00183949 0)
(0.0400487 0.00224711 0)
(0.0454587 0.00271707 0)
(0.0511183 0.0032569 0)
(0.0570419 0.00387315 0)
(0.063247 0.00457214 0)
(0.0697538 0.00535923 0)
(0.0765935 0.00623925 0)
(0.0838094 0.00721583 0)
(0.0914511 0.00828991 0)
(0.0996063 0.00946251 0)
(0.108391 0.0107338 0)
(0.117953 0.012101 0)
(0.128479 0.0135592 0)
(0.140201 0.0151017 0)
(0.153415 0.0167167 0)
(0.168464 0.0183858 0)
(0.185684 0.0200804 0)
(0.205406 0.0217549 0)
(0.227711 0.0233331 0)
(0.252201 0.0247037 0)
(0.277588 0.0257213 0)
(0.300874 0.0262542 0)
(0.311312 0.0264287 -6.30503e-14)
(0 0 0)
(0.00558256 0.00023916 0)
(0.0107467 0.000469261 0)
(0.0156598 0.000704595 0)
(0.0204761 0.000958016 0)
(0.0253123 0.00124039 0)
(0.0302575 0.00156144 0)
(0.0353794 0.00193018 0)
(0.0407274 0.00235491 0)
(0.0463416 0.00284362 0)
(0.0522533 0.00340363 0)
(0.0584915 0.00404182 0)
(0.0650898 0.00476485 0)
(0.0720781 0.00557751 0)
(0.0795015 0.00648418 0)
(0.0874206 0.007488 0)
(0.0959071 0.00858968 0)
(0.105071 0.00978934 0)
(0.115049 0.0110851 0)
(0.12601 0.0124723 0)
(0.138172 0.0139438 0)
(0.151813 0.0154896 0)
(0.167252 0.017095 0)
(0.18487 0.0187368 0)
(0.205047 0.0203822 0)
(0.228129 0.0219834 0)
(0.254116 0.0234684 0)
(0.282465 0.0247488 0)
(0.311385 0.0257161 0)
(0.336945 0.026237 0)
(0.348144 0.0263899 4.63809e-13)
(0 0 0)
(0.00562658 0.0002504 0)
(0.010838 0.000491185 0)
(0.0158049 0.000737051 0)
(0.0206851 0.00100121 0)
(0.0255988 0.00129476 0)
(0.0306412 0.00162773 0)
(0.0358873 0.00200937 0)
(0.041392 0.00244799 0)
(0.047201 0.00295145 0)
(0.0533545 0.00352703 0)
(0.0598946 0.00418179 0)
(0.0668665 0.00492219 0)
(0.0743107 0.00575251 0)
(0.082287 0.00667664 0)
(0.0908718 0.00769707 0)
(0.100156 0.00881384 0)
(0.110265 0.0100257 0)
(0.121354 0.0113287 0)
(0.133615 0.0127159 0)
(0.147297 0.0141778 0)
(0.162704 0.0157006 0)
(0.18018 0.0172642 0)
(0.200121 0.0188413 0)
(0.22294 0.0203945 0)
(0.248984 0.0218737 0)
(0.27824 0.0232179 0)
(0.310242 0.0243811 0)
(0.343055 0.0253522 0)
(0.372065 0.0260321 0)
(0.384834 0.0262621 -6.92234e-14)
(0 0 0)
(0.00567109 0.000260562 0)
(0.0109304 0.000510976 0)
(0.0159511 0.000766224 0)
(0.0208947 0.00103978 0)
(0.025885 0.00134296 0)
(0.0310223 0.00168595 0)
(0.0363865 0.00207799 0)
(0.0420388 0.00252736 0)
(0.0480328 0.00304192 0)
(0.0544156 0.0036287 0)
(0.061239 0.00429458 0)
(0.0685592 0.00504574 0)
(0.0764275 0.00588596 0)
(0.0849178 0.00681858 0)
(0.0941188 0.0078451 0)
(0.104134 0.00896434 0)
(0.115103 0.0101736 0)
(0.127199 0.0114668 0)
(0.140629 0.0128346 0)
(0.155663 0.014264 0)
(0.172603 0.0157362 0)
(0.191805 0.0172255 0)
(0.213643 0.0186976 0)
(0.238508 0.0201079 0)
(0.266667 0.0213987 0)
(0.298001 0.0225011 0)
(0.331926 0.0233483 0)
(0.366088 0.0238674 0)
(0.395181 0.0237751 0)
(0.421321 0.0261868 1.27902e-22)
(-3.71231e-16 0 6.86973e-22)
(0.00633086 0 0)
(0.0180708 0 0)
(0.0360364 0 0)
(0.0575239 0 0)
(0.0796625 0 0)
(0.100084 0 0)
(0.117286 0 0)
(0.130604 0 0)
(0.140006 0 0)
(0.145809 0 0)
(0.148461 0 0)
(0.148426 0 0)
(0.146138 0 0)
(0.142001 0 0)
(0.136369 0 0)
(0.129547 0 0)
(0.121808 0 0)
(0.113376 0 0)
(0.104454 0 0)
(0.0952345 0 0)
(0.0858569 0 0)
(0.0764375 0 0)
(0.0670553 0 0)
(0.057749 0 0)
(0.0485337 0 0)
(0.0393565 0 0)
(0.0301058 0 0)
(0.0206262 0 0)
(0.010679 0 0)
(0 0 0)
(0.0046442 -0.00525455 8.32551e-13)
(0.0101377 -0.00518367 0)
(0.021948 -0.0052468 0)
(0.0398066 -0.00513204 0)
(0.0610318 -0.00492195 0)
(0.0828333 -0.00465483 0)
(0.102861 -0.00435178 0)
(0.119655 -0.00402723 0)
(0.13259 -0.00368716 0)
(0.141648 -0.00334427 0)
(0.147153 -0.00301282 0)
(0.149547 -0.00270007 0)
(0.14929 -0.00240562 0)
(0.146814 -0.00212673 0)
(0.142519 -0.0018679 0)
(0.136756 -0.00163237 0)
(0.129823 -0.0014174 0)
(0.121993 -0.00122232 0)
(0.113489 -0.00104789 0)
(0.104511 -0.000892631 0)
(0.0952483 -0.000753979 0)
(0.0858376 -0.000630519 0)
(0.0763917 -0.000522528 0)
(0.0669964 -0.000427791 0)
(0.0576856 -0.000344593 0)
(0.0484685 -0.000272193 0)
(0.0392995 -0.000208829 0)
(0.0300629 -0.000152427 0)
(0.0205973 -0.000100688 0)
(0.0106672 -5.09031e-05 0)
(0 0 0)
(0.0149921 -0.00987416 -2.6171e-13)
(0.0208256 -0.00985969 0)
(0.0331451 -0.0100083 0)
(0.0509012 -0.00984172 0)
(0.0715281 -0.00946808 0)
(0.0924265 -0.00896106 0)
(0.111353 -0.00836845 0)
(0.126991 -0.00773356 0)
(0.138828 -0.00707937 0)
(0.14689 -0.00642518 0)
(0.15152 -0.00579389 0)
(0.153156 -0.00519368 0)
(0.152248 -0.00462653 0)
(0.149226 -0.00409608 0)
(0.144468 -0.00360429 0)
(0.138317 -0.00315452 0)
(0.13106 -0.00274413 0)
(0.122956 -0.00237165 0)
(0.11423 -0.00203733 0)
(0.105072 -0.00173652 0)
(0.095665 -0.00146817 0)
(0.0861394 -0.00123016 0)
(0.0765988 -0.00101972 0)
(0.0671348 -0.000835475 0)
(0.0577772 -0.000674268 0)
(0.0485237 -0.000533075 0)
(0.0393348 -0.000409297 0)
(0.0300911 -0.00029899 0)
(0.0206197 -0.000197577 0)
(0.0106833 -9.99446e-05 0)
(0 0 0)
(0.0308547 -0.013783 -1.6569e-13)
(0.0371791 -0.0138724 0)
(0.0504758 -0.0141261 0)
(0.0682565 -0.0139436 0)
(0.0881259 -0.0134551 0)
(0.107696 -0.0127562 0)
(0.12497 -0.0119215 0)
(0.138853 -0.011018 0)
(0.149008 -0.0100954 0)
(0.155528 -0.00917578 0)
(0.158791 -0.00828436 0)
(0.159244 -0.00743565 0)
(0.157321 -0.00663311 0)
(0.153439 -0.00588419 0)
(0.147953 -0.00518966 0)
(0.141183 -0.00455087 0)
(0.133409 -0.00396741 0)
(0.124865 -0.00343523 0)
(0.115775 -0.00295507 0)
(0.10632 -0.00252256 0)
(0.0966613 -0.00213557 0)
(0.0869351 -0.00179228 0)
(0.0772302 -0.00148764 0)
(0.0676276 -0.00121982 0)
(0.0581641 -0.000985771 0)
(0.0488266 -0.000780419 0)
(0.0395656 -0.000599757 0)
(0.0302642 -0.000438664 0)
(0.0207413 -0.000290308 0)
(0.0107487 -0.000147042 0)
(0 0 0)
(0.0512618 -0.0170474 4.49835e-13)
(0.0582485 -0.0172553 0)
(0.0727211 -0.0175968 0)
(0.0905784 -0.0174133 0)
(0.109515 -0.0168358 0)
(0.127378 -0.0159814 0)
(0.142543 -0.0149557 0)
(0.154192 -0.0138378 0)
(0.162184 -0.0126937 0)
(0.166735 -0.0115582 0)
(0.168258 -0.010455 0)
(0.1672 -0.00940213 0)
(0.16398 -0.00840632 0)
(0.158986 -0.00747381 0)
(0.152559 -0.00660793 0)
(0.144985 -0.00580748 0)
(0.136536 -0.00507357 0)
(0.127422 -0.00440203 0)
(0.117852 -0.00379287 0)
(0.108002 -0.0032438 0)
(0.0980135 -0.00275057 0)
(0.088017 -0.00231149 0)
(0.0780953 -0.00192201 0)
(0.0683099 -0.00157834 0)
(0.0586984 -0.00127709 0)
(0.0492436 -0.00101278 0)
(0.0398829 -0.000779615 0)
(0.0304972 -0.000570999 0)
(0.0209005 -0.000378445 0)
(0.0108331 -0.000191953 0)
(0 0 0)
(0.0754054 -0.0198717 -3.63959e-22)
(0.0832356 -0.0201558 0)
(0.0989397 -0.0205152 0)
(0.116803 -0.0202951 0)
(0.134561 -0.0196243 0)
(0.15037 -0.0186369 0)
(0.163046 -0.0174586 0)
(0.172097 -0.0161782 0)
(0.177582 -0.0148638 0)
(0.179861 -0.0135609 0)
(0.17938 -0.0122946 0)
(0.176573 -0.0110823 0)
(0.171852 -0.00993391 0)
(0.165563 -0.00885377 0)
(0.158031 -0.00784696 0)
(0.149519 -0.00691272 0)
(0.140274 -0.0060523 0)
(0.130496 -0.00526357 0)
(0.120359 -0.00454415 0)
(0.110039 -0.00389358 0)
(0.0996621 -0.00330785 0)
(0.0893391 -0.00278432 0)
(0.0791521 -0.00231961 0)
(0.0691497 -0.00190868 0)
(0.0593573 -0.00154711 0)
(0.0497545 -0.00122919 0)
(0.0402714 -0.000947943 0)
(0.0307817 -0.000695344 0)
(0.0210925 -0.000461496 0)
(0.0109338 -0.000234355 0)
(0 0 0)
(0.103093 -0.0224816 1.54255e-12)
(0.111644 -0.0226687 0)
(0.128414 -0.0229481 0)
(0.146002 -0.022629 0)
(0.162221 -0.0218466 0)
(0.175625 -0.0207423 0)
(0.185489 -0.0194449 0)
(0.191669 -0.0180458 0)
(0.194439 -0.0166118 0)
(0.194258 -0.0151889 0)
(0.191599 -0.0138037 0)
(0.186895 -0.0124739 0)
(0.180534 -0.0112102 0)
(0.172837 -0.0100173 0)
(0.1641 -0.00890046 0)
(0.154564 -0.00786054 0)
(0.144445 -0.00689815 0)
(0.133935 -0.00601371 0)
(0.123183 -0.00520384 0)
(0.112342 -0.00446811 0)
(0.101532 -0.00380433 0)
(0.0908456 -0.00320912 0)
(0.080357 -0.0026791 0)
(0.070108 -0.00220931 0)
(0.0601119 -0.00179456 0)
(0.0503404 -0.00142856 0)
(0.0407168 -0.0011037 0)
(0.0311074 -0.000810879 0)
(0.021311 -0.000538909 0)
(0.0110476 -0.000273968 0)
(0 0 0)
(0.133909 -0.0246326 2.78763e-13)
(0.142957 -0.0247374 0)
(0.160412 -0.0248723 0)
(0.177266 -0.0244194 0)
(0.191504 -0.0235238 0)
(0.202149 -0.0223237 0)
(0.208933 -0.0209403 0)
(0.212059 -0.019462 0)
(0.211991 -0.0179515 0)
(0.209256 -0.0164516 0)
(0.204345 -0.0149888 0)
(0.19768 -0.0135804 0)
(0.189627 -0.0122371 0)
(0.18048 -0.010965 0)
(0.170495 -0.00976825 0)
(0.159902 -0.00865023 0)