/*--------------------------------*- C++ -*----------------------------------*\
| =========                 |                                                 |
| \\      /  F ield         | OpenFOAM: The Open Source CFD Toolbox           |
|  \\    /   O peration     | Version:  5.x                                   |
|   \\  /    A nd           | Web:      www.OpenFOAM.org                      |
|    \\/     M anipulation  |                                                 |
\*---------------------------------------------------------------------------*/
FoamFile
{
    version     2.0;
    format      ascii;
    class       volScalarField;
    location    "1";
    object      gradTy;
}
// * * * * * * * * * * * * * * * * * * * * * * * * * * * * * * * * * * * * * //

dimensions      [0 -1 0 1 0 0 0];

internalField   nonuniform List<scalar> 
512
(
-26.4632
-26.3555
-26.1575
-25.8971
-25.6038
-25.3031
-25.0133
-24.7466
-24.5092
-24.3036
-24.1294
-23.9851
-23.8682
-23.776
-23.7061
-23.6563
-23.6251
-23.6113
-23.6147
-23.6354
-23.6743
-23.7326
-23.8121
-23.9142
-24.04
-24.1889
-24.358
-24.5402
-24.7237
-24.8908
-25.0203
-25.0916
-26.4893
-26.3773
-26.1723
-25.9045
-25.6048
-25.2993
-25.0066
-24.7383
-24.5002
-24.2946
-24.1208
-23.9771
-23.8608
-23.7692
-23.6998
-23.6504
-23.6194
-23.6058
-23.6091
-23.6296
-23.6681
-23.7261
-23.8052
-23.907
-24.0329
-24.1826
-24.3534
-24.5387
-24.7266
-24.899
-25.0337
-25.1084
-26.5426
-26.4214
-26.2019
-25.9189
-25.6063
-25.2915
-24.9928
-24.7213
-24.4821
-24.2765
-24.1036
-23.9611
-23.846
-23.7557
-23.6873
-23.6387
-23.6082
-23.5947
-23.5979
-23.6179
-23.6558
-23.713
-23.7912
-23.8926
-24.0187
-24.1698
-24.3441
-24.5354
-24.7322
-24.9156
-25.0611
-25.1426
-26.6255
-26.4893
-26.2466
-25.9398
-25.6075
-25.2787
-24.9713
-24.6953
-24.4545
-24.2492
-24.0777
-23.937
-23.824
-23.7354
-23.6686
-23.6212
-23.5914
-23.5782
-23.5812
-23.6006
-23.6374
-23.6933
-23.7703
-23.8708
-23.9969
-24.1501
-24.3293
-24.5296
-24.7399
-24.9406
-25.1033
-25.1962
-26.7415
-26.583
-26.3066
-25.9663
-25.607
-25.2595
-24.941
-24.6594
-24.4169
-24.2124
-24.0429
-23.9049
-23.7946
-23.7086
-23.6439
-23.5981
-23.5693
-23.5565
-23.5591
-23.5777
-23.6131
-23.6671
-23.7422
-23.8413
-23.9672
-24.1226
-24.308
-24.5202
-24.7491
-24.974
-25.1619
-25.2719
-26.8965
-26.7053
-26.3818
-25.9966
-25.6027
-25.2322
-24.9005
-24.6128
-24.3689
-24.1658
-23.9992
-23.8647
-23.758
-23.6753
-23.6133
-23.5695
-23.542
-23.5296
-23.5319
-23.5493
-23.5828
-23.6345
-23.707
-23.8038
-23.929
-24.0865
-24.2789
-24.5055
-24.7581
-25.0155
-25.2389
-25.374
-27.0985
-26.8599
-26.4717
-26.0282
-25.5917
-25.1943
-24.848
-24.5542
-24.3096
-24.1089
-23.9464
-23.8164
-23.7143
-23.6356
-23.5769
-23.5356
-23.5096
-23.4978
-23.4997
-23.5156
-23.5468
-23.5954
-23.6644
-23.7581
-23.8815
-24.0404
-24.2401
-24.4831
-24.7647
-25.0645
-25.3368
-25.5088
-27.3595
-27.051
-26.5746
-26.0571
-25.5701
-25.1427
-24.7814
-24.4823
-24.2383
-24.0414
-23.8842
-23.7601
-23.6634
-23.5896
-23.535
-23.4966
-23.4725
-23.4613
-23.4627
-23.4768
-23.5051
-23.5498
-23.6144
-23.7037
-23.8239
-23.9829
-24.1892
-24.45
-24.7656
-25.1191
-25.4586
-25.6853
-27.6969
-27.2833
-26.687
-26.0776
-25.5326
-25.0736
-24.6981
-24.3956
-24.1541
-23.9629
-23.8126
-23.6956
-23.6056
-23.5376
-23.4876
-23.4527
-23.4307
-23.4203
-23.421
-23.4332
-23.458
-23.498
-23.5569
-23.6401
-23.7553
-23.9123
-24.1235
-24.4018
-24.7559
-25.176
-25.6075
-25.9173
-28.137
-27.5606
-26.8019
-26.0812
-25.4727
-24.9827
-24.5957
-24.2925
-24.0563
-23.8729
-23.7314
-23.6231
-23.541
-23.4797
-23.4352
-23.4043
-23.3848
-23.3752
-23.3752
-23.3849
-23.4057
-23.4401
-23.4919
-23.5673
-23.6749
-23.8268
-24.0396
-24.3335
-24.7283
-25.2289
-25.7855
-26.2256
-28.7206
-27.8827
-26.9065
-26.0559
-25.3824
-24.8651
-24.4712
-24.1717
-23.9441
-23.7713
-23.6408
-23.5428
-23.4699
-23.4165
-23.3781
-23.3517
-23.3349
-23.3264
-23.3256
-23.3326
-23.3488
-23.3764
-23.4197
-23.4851
-23.5821
-23.725
-23.9343
-24.2387
-24.6732
-25.2665
-25.9915
-26.6429
-29.513
-28.2388
-26.9789
-25.9856
-25.2522
-24.7159
-24.3223
-24.0319
-23.8171
-23.6582
-23.541
-23.4552
-23.3929
-23.3482
-23.3169
-23.2955
-23.2819
-23.2745
-23.2728
-23.2768
-23.2877
-23.3077
-23.3409
-23.3938
-23.4767
-23.6053
-23.8041
-24.1102
-24.5772
-25.2703
-26.2149
-27.2221
-30.6233
-28.5909
-26.9839
-25.8497
-25.0718
-24.53
-24.1466
-23.8723
-23.6751
-23.5335
-23.4322
-23.3605
-23.3102
-23.2754
-23.2519
-23.2361
-23.226
-23.2199
-23.2173
-23.2181
-23.2231
-23.2345
-23.2558
-23.2938
-23.3586
-23.4669
-23.6459
-23.9404
-24.4237
-25.21
-26.4216
-28.0521
-32.2411
-28.8363
-26.8699
-25.6238
-24.8315
-24.3036
-23.9425
-23.6922
-23.518
-23.3974
-23.3146
-23.259
-23.2222
-23.1984
-23.1834
-23.1738
-23.1675
-23.163
-23.1594
-23.1567
-23.1553
-23.1572
-23.1651
-23.1857
-23.2282
-23.3093
-23.4574
-23.722
-24.193
-25.0422
-26.5225
-29.2884
-34.7096
-28.7214
-26.5752
-25.2838
-24.5241
-24.0345
-23.7098
-23.492
-23.3464
-23.2506
-23.1889
-23.1515
-23.1297
-23.1178
-23.1123
-23.1092
-23.1072
-23.1044
-23.0999
-23.0936
-23.0854
-23.077
-23.0699
-23.0706
-23.0868
-23.1336
-23.2385
-23.4506
-23.8666
-24.7153
-26.3009
-31.2151
-38.6748
-27.6454
-26.0663
-24.8101
-24.1483
-23.7232
-23.4492
-23.2727
-23.1612
-23.0942
-23.056
-23.0389
-23.0334
-23.0343
-23.0392
-23.0431
-23.0458
-23.0449
-23.0394
-23.0297
-23.0141
-22.9951
-22.9714
-22.9504
-22.9364
-22.9422
-22.9915
-23.1271
-23.4309
-24.2033
-25.2459
-34.3698
)
;

boundaryField
{
    left
    {
        type            calculated;
        value           nonuniform List<scalar> 
16
(
-26.4632
-26.4893
-26.5426
-26.6255
-26.7415
-26.8965
-27.0985
-27.3595
-27.6969
-28.137
-28.7206
-29.513
-30.6233
-32.2411
-34.7096
-38.6748
)
;
    }
    right
    {
        type            calculated;
        value           nonuniform List<scalar> 
16
(
-25.0916
-25.1084
-25.1426
-25.1962
-25.2719
-25.374
-25.5088
-25.6853
-25.9173
-26.2256
-26.6429
-27.2221
-28.0521
-29.2884
-31.2151
-34.3698
)
;
    }
    interface
    {
        type            calculated;
        value           nonuniform List<scalar> 
32
(
-41.1376
-26.7617
-25.7578
-24.5378
-23.9436
-23.5573
-23.3122
-23.1584
-23.0653
-23.0136
-22.9878
-22.9814
-22.9843
-22.9918
-23.0022
-23.0097
-23.0149
-23.015
-23.009
-22.9976
-22.9782
-22.9539
-22.9215
-22.8892
-22.8592
-22.8429
-22.8615
-22.9528
-23.1845
-23.9008
-24.4206
-36.3423
)
;
    }
    bottom
    {
        type            calculated;
        value           nonuniform List<scalar> 
32
(
-26.4567
-26.3501
-26.1538
-25.8953
-25.6036
-25.304
-25.015
-24.7487
-24.5115
-24.3058
-24.1316
-23.9871
-23.87
-23.7777
-23.7077
-23.6578
-23.6265
-23.6127
-23.6161
-23.6369
-23.6758
-23.7343
-23.8138
-23.916
-24.0417
-24.1905
-24.3591
-24.5406
-24.7229
-24.8887
-25.017
-25.0875
)
;
    }
    defaultFaces
    {
        type            empty;
    }
}


// ************************************************************************* //
