/*--------------------------------*- C++ -*----------------------------------*\
| =========                 |                                                 |
| \\      /  F ield         | OpenFOAM: The Open Source CFD Toolbox           |
|  \\    /   O peration     | Version:  5.x                                   |
|   \\  /    A nd           | Web:      www.OpenFOAM.org                      |
|    \\/     M anipulation  |                                                 |
\*---------------------------------------------------------------------------*/
FoamFile
{
    version     2.0;
    format      ascii;
    class       volVectorField;
    location    "0.8";
    object      U;
}
// * * * * * * * * * * * * * * * * * * * * * * * * * * * * * * * * * * * * * //

dimensions      [0 1 -1 0 0 0 0];

internalField   nonuniform List<vector> 
12013
(
(0.100003 -6.87804e-07 0)
(0.100012 -5.24892e-07 0)
(0.100014 7.09633e-07 0)
(0.0999981 2.98832e-06 0)
(0.0999553 5.91527e-06 0)
(0.0998831 8.89354e-06 0)
(0.0997854 1.13628e-05 0)
(0.0996701 1.29948e-05 0)
(0.0995464 1.37521e-05 0)
(0.0994222 1.38158e-05 0)
(0.0993025 1.34595e-05 0)
(0.0991896 1.29381e-05 0)
(0.0990836 1.24285e-05 0)
(0.0989839 1.20211e-05 0)
(0.0988891 1.17366e-05 0)
(0.0987982 1.15575e-05 0)
(0.0987103 1.14488e-05 0)
(0.0986251 1.13764e-05 0)
(0.0985423 1.13124e-05 0)
(0.0984619 1.12382e-05 0)
(0.098384 1.11419e-05 0)
(0.0983087 1.10172e-05 0)
(0.0982362 1.08615e-05 0)
(0.0981667 1.0674e-05 0)
(0.0981002 1.04535e-05 0)
(0.098037 1.02008e-05 0)
(0.0979772 9.91538e-06 0)
(0.0979209 9.59768e-06 0)
(0.0978682 9.2469e-06 0)
(0.0978191 8.8642e-06 0)
(0.0977739 8.44913e-06 0)
(0.0977325 8.00345e-06 0)
(0.097695 7.52881e-06 0)
(0.0976615 7.0277e-06 0)
(0.097632 6.50363e-06 0)
(0.0976065 5.96166e-06 0)
(0.0975848 5.40774e-06 0)
(0.097567 4.84915e-06 0)
(0.097553 4.29497e-06 0)
(0.0975425 3.75544e-06 0)
(0.0975353 3.24293e-06 0)
(0.0975313 2.77087e-06 0)
(0.09753 2.35521e-06 0)
(0.0975311 2.01336e-06 0)
(0.0975341 1.76571e-06 0)
(0.0975386 1.63422e-06 0)
(0.0975439 1.64429e-06 0)
(0.0975495 1.82367e-06 0)
(0.0975545 2.20413e-06 0)
(0.0975581 2.8224e-06 0)
(0.0975594 3.71842e-06 0)
(0.0975574 4.93909e-06 0)
(0.0975508 6.53869e-06 0)
(0.0975384 8.57877e-06 0)
(0.0975188 1.11326e-05 0)
(0.0974903 1.42861e-05 0)
(0.0974509 1.81406e-05 0)
(0.0973987 2.28177e-05 0)
(0.0973312 2.84639e-05 0)
(0.0972457 3.52582e-05 0)
(0.0971388 4.34189e-05 0)
(0.097007 5.3218e-05 0)
(0.0968457 6.49963e-05 0)
(0.0966497 7.91853e-05 0)
(0.0964126 9.63384e-05 0)
(0.0961268 0.000117176 0)
(0.0957828 0.000142647 0)
(0.0953689 0.000174024 0)
(0.09487 0.00021304 0)
(0.094267 0.000262108 0)
(0.0935348 0.000324644 0)
(0.09264 0.000405599 0)
(0.091537 0.000512319 0)
(0.0901627 0.00065596 0)
(0.0884272 0.000853887 0)
(0.0862007 0.00113379 0)
(0.0832899 0.00154092 0)
(0.0793888 0.00215314 0)
(0.0740186 0.00312801 0)
(0.066609 0.00490672 0)
(0.0582661 0.00947796 0)
(0.100003 -2.12093e-06 0)
(0.100012 -1.63885e-06 0)
(0.100015 2.13597e-06 0)
(0.0999992 9.11824e-06 0)
(0.099957 1.80964e-05 0)
(0.0998856 2.72393e-05 0)
(0.0997885 3.48256e-05 0)
(0.0996737 3.98464e-05 0)
(0.0995505 4.21842e-05 0)
(0.0994266 4.23924e-05 0)
(0.099307 4.1309e-05 0)
(0.0991941 3.9715e-05 0)
(0.0990881 3.81556e-05 0)
(0.0989883 3.69059e-05 0)
(0.0988934 3.60337e-05 0)
(0.0988024 3.54829e-05 0)
(0.0987145 3.5149e-05 0)
(0.0986292 3.49264e-05 0)
(0.0985464 3.473e-05 0)
(0.0984659 3.45023e-05 0)
(0.0983879 3.42078e-05 0)
(0.0983126 3.38275e-05 0)
(0.09824 3.33524e-05 0)
(0.0981703 3.27794e-05 0)
(0.0981037 3.2107e-05 0)
(0.0980403 3.13359e-05 0)
(0.0979803 3.04656e-05 0)
(0.0979237 2.94959e-05 0)
(0.0978707 2.84266e-05 0)
(0.0978213 2.72592e-05 0)
(0.0977757 2.5994e-05 0)
(0.0977338 2.46353e-05 0)
(0.0976959 2.31884e-05 0)
(0.0976618 2.16616e-05 0)
(0.0976316 2.00659e-05 0)
(0.0976054 1.84157e-05 0)
(0.097583 1.67294e-05 0)
(0.0975644 1.50304e-05 0)
(0.0975494 1.3346e-05 0)
(0.0975379 1.17081e-05 0)
(0.0975297 1.0153e-05 0)
(0.0975245 8.72289e-06 0)
(0.0975219 7.46723e-06 0)
(0.0975217 6.43952e-06 0)
(0.0975234 5.70098e-06 0)
(0.0975264 5.31987e-06 0)
(0.0975302 5.37318e-06 0)
(0.0975341 5.94682e-06 0)
(0.0975374 7.13803e-06 0)
(0.0975393 9.05696e-06 0)
(0.0975388 1.18281e-05 0)
(0.0975349 1.55948e-05 0)
(0.0975265 2.05208e-05 0)
(0.0975122 2.67961e-05 0)
(0.0974907 3.46429e-05 0)
(0.0974603 4.43226e-05 0)
(0.0974192 5.61441e-05 0)
(0.0973653 7.04765e-05 0)
(0.0972962 8.77653e-05 0)
(0.0972094 0.000108551 0)
(0.0971016 0.000133496 0)
(0.0969693 0.00016342 0)
(0.0968081 0.000199349 0)
(0.0966131 0.000242579 0)
(0.0963782 0.000294768 0)
(0.0960962 0.000358062 0)
(0.0957583 0.000435278 0)
(0.0953537 0.00053017 0)
(0.0948686 0.00064782 0)
(0.0942861 0.000795231 0)
(0.0935841 0.000982224 0)
(0.0927344 0.00122284 0)
(0.0916996 0.00153754 0)
(0.0904303 0.0019567 0)
(0.0888608 0.00252614 0)
(0.086904 0.00331575 0)
(0.0844464 0.00443203 0)
(0.0813386 0.0060353 0)
(0.0774144 0.00836233 0)
(0.0727273 0.0116914 0)
(0.06863 0.0158912 0)
(0.100003 -3.67374e-06 0)
(0.100012 -2.90909e-06 0)
(0.100015 3.52487e-06 0)
(0.100001 1.54798e-05 0)
(0.0999601 3.08878e-05 0)
(0.0998903 4.66103e-05 0)
(0.0997948 5.96879e-05 0)
(0.0996815 6.8377e-05 0)
(0.0995594 7.24624e-05 0)
(0.0994361 7.28828e-05 0)
(0.0993169 7.10696e-05 0)
(0.0992041 6.83631e-05 0)
(0.0990981 6.57008e-05 0)
(0.0989982 6.35598e-05 0)
(0.0989032 6.20604e-05 0)
(0.098812 6.11093e-05 0)
(0.098724 6.05309e-05 0)
(0.0986386 6.01444e-05 0)
(0.0985557 5.98055e-05 0)
(0.0984752 5.9415e-05 0)
(0.0983972 5.89127e-05 0)
(0.0983217 5.82659e-05 0)
(0.098249 5.74592e-05 0)
(0.0981792 5.64865e-05 0)
(0.0981124 5.5346e-05 0)
(0.0980488 5.40382e-05 0)
(0.0979884 5.25624e-05 0)
(0.0979314 5.09188e-05 0)
(0.0978779 4.91075e-05 0)
(0.097828 4.71293e-05 0)
(0.0977817 4.49876e-05 0)
(0.0977391 4.26882e-05 0)
(0.0977003 4.02406e-05 0)
(0.0976652 3.76595e-05 0)
(0.097634 3.49642e-05 0)
(0.0976065 3.2179e-05 0)
(0.0975827 2.93364e-05 0)
(0.0975626 2.64761e-05 0)
(0.0975459 2.3645e-05 0)
(0.0975326 2.08974e-05 0)
(0.0975224 1.82967e-05 0)
(0.0975151 1.59158e-05 0)
(0.0975103 1.38376e-05 0)
(0.0975076 1.21551e-05 0)
(0.0975066 1.09727e-05 0)
(0.0975069 1.0408e-05 0)
(0.0975077 1.05916e-05 0)
(0.0975086 1.16719e-05 0)
(0.0975086 1.38139e-05 0)
(0.0975072 1.72054e-05 0)
(0.0975032 2.20599e-05 0)
(0.0974957 2.86205e-05 0)
(0.0974836 3.71658e-05 0)
(0.0974657 4.80191e-05 0)
(0.0974404 6.15568e-05 0)
(0.0974063 7.82202e-05 0)
(0.0973617 9.85315e-05 0)
(0.0973044 0.000123113 0)
(0.0972322 0.000152711 0)
(0.0971427 0.000188232 0)
(0.0970327 0.000230779 0)
(0.0968991 0.000281717 0)
(0.0967376 0.000342739 0)
(0.0965439 0.000415977 0)
(0.0963124 0.000504136 0)
(0.0960366 0.000610694 0)
(0.0957089 0.000740169 0)
(0.0953198 0.000898513 0)
(0.0948582 0.00109367 0)
(0.0943101 0.00133641 0)
(0.0936589 0.00164148 0)
(0.0928838 0.00202943 0)
(0.0919599 0.00252917 0)
(0.0908574 0.00318172 0)
(0.0895427 0.00404536 0)
(0.0879811 0.00520199 0)
(0.086146 0.00676244 0)
(0.0840357 0.0088644 0)
(0.081718 0.0116477 0)
(0.0794649 0.0151298 0)
(0.0780083 0.0186983 0)
(0.100003 -5.35516e-06 0)
(0.100012 -4.37686e-06 0)
(0.100017 4.79341e-06 0)
(0.100003 2.19388e-05 0)
(0.0999648 4.41168e-05 0)
(0.0998976 6.68233e-05 0)
(0.0998048 8.57901e-05 0)
(0.0996939 9.84806e-05 0)
(0.0995737 0.000104548 0)
(0.0994517 0.000105316 0)
(0.0993332 0.000102827 0)
(0.0992207 9.90065e-05 0)
(0.0991146 9.5209e-05 0)
(0.0990145 9.21341e-05 0)
(0.0989193 8.99647e-05 0)
(0.098828 8.85783e-05 0)
(0.0987399 8.7727e-05 0)
(0.0986545 8.71555e-05 0)
(0.0985715 8.66589e-05 0)
(0.098491 8.60939e-05 0)
(0.098413 8.53741e-05 0)
(0.0983375 8.44521e-05 0)
(0.0982648 8.33055e-05 0)
(0.0981949 8.19252e-05 0)
(0.0981279 8.03088e-05 0)
(0.0980641 7.84556e-05 0)
(0.0980034 7.6366e-05 0)
(0.0979459 7.40403e-05 0)
(0.0978919 7.14785e-05 0)
(0.0978413 6.86824e-05 0)
(0.0977942 6.56574e-05 0)
(0.0977507 6.24123e-05 0)
(0.0977108 5.89615e-05 0)
(0.0976744 5.53257e-05 0)
(0.0976418 5.1533e-05 0)
(0.0976126 4.76204e-05 0)
(0.097587 4.36341e-05 0)
(0.0975649 3.96316e-05 0)
(0.097546 3.56804e-05 0)
(0.0975302 3.18589e-05 0)
(0.0975174 2.82594e-05 0)
(0.0975071 2.49866e-05 0)
(0.0974991 2.21594e-05 0)
(0.0974931 1.9912e-05 0)
(0.0974885 1.83946e-05 0)
(0.0974849 1.77753e-05 0)
(0.0974817 1.82427e-05 0)
(0.0974782 2.0008e-05 0)
(0.0974738 2.33085e-05 0)
(0.0974677 2.84127e-05 0)
(0.0974589 3.56248e-05 0)
(0.0974464 4.52905e-05 0)
(0.0974293 5.78069e-05 0)
(0.0974062 7.36318e-05 0)
(0.0973759 9.32979e-05 0)
(0.0973368 0.000117428 0)
(0.0972873 0.000146755 0)
(0.0972255 0.000182151 0)
(0.0971493 0.000224659 0)
(0.0970563 0.000275533 0)
(0.0969438 0.000336301 0)
(0.0968089 0.000408832 0)
(0.0966479 0.000495436 0)
(0.0964568 0.00059899 0)
(0.0962311 0.000723116 0)
(0.0959652 0.000872407 0)
(0.0956531 0.00105275 0)
(0.0952874 0.00127179 0)
(0.09486 0.00153949 0)
(0.0943612 0.00186904 0)
(0.0937804 0.00227798 0)
(0.0931062 0.00278981 0)
(0.0923269 0.00343608 0)
(0.0914328 0.00425891 0)
(0.0904191 0.00531358 0)
(0.0892929 0.0066697 0)
(0.0880846 0.00840711 0)
(0.0868651 0.010598 0)
(0.0857707 0.0132588 0)
(0.0850305 0.0162321 0)
(0.0849316 0.018923 0)
(0.100003 -7.18411e-06 0)
(0.100013 -6.09802e-06 0)
(0.100018 5.8257e-06 0)
(0.100007 2.83071e-05 0)
(0.0999711 5.75356e-05 0)
(0.0999075 8.76064e-05 0)
(0.0998187 0.000112882 0)
(0.0997113 0.000129968 0)
(0.0995939 0.000138339 0)
(0.0994739 0.000139677 0)
(0.0993564 0.000136637 0)
(0.0992443 0.000131751 0)
(0.0991383 0.000126813 0)
(0.099038 0.00012277 0)
(0.0989426 0.000119884 0)
(0.0988512 0.000118015 0)
(0.098763 0.00011685 0)
(0.0986776 0.000116061 0)
(0.0985947 0.000115381 0)
(0.0985143 0.000114623 0)
(0.0984364 0.000113672 0)
(0.0983611 0.000112466 0)
(0.0982885 0.000110973 0)
(0.0982186 0.00010918 0)
(0.0981516 0.000107085 0)
(0.0980876 0.000104687 0)
(0.0980266 0.000101985 0)
(0.0979688 9.89809e-05 0)
(0.0979143 9.5675e-05 0)
(0.097863 9.20709e-05 0)
(0.0978151 8.81757e-05 0)
(0.0977706 8.40019e-05 0)
(0.0977295 7.95698e-05 0)
(0.0976917 7.49073e-05 0)
(0.0976574 7.00522e-05 0)
(0.0976264 6.50544e-05 0)
(0.0975987 5.99756e-05 0)
(0.0975742 5.4892e-05 0)
(0.0975527 4.98927e-05 0)
(0.097534 4.5083e-05 0)
(0.0975179 4.05838e-05 0)
(0.0975041 3.65339e-05 0)
(0.0974923 3.30902e-05 0)
(0.0974822 3.04291e-05 0)
(0.0974732 2.87486e-05 0)
(0.097465 2.82698e-05 0)
(0.0974568 2.92402e-05 0)
(0.0974482 3.19363e-05 0)
(0.0974383 3.66694e-05 0)
(0.0974265 4.37895e-05 0)
(0.0974119 5.36928e-05 0)
(0.0973935 6.68291e-05 0)
(0.0973703 8.37123e-05 0)
(0.0973412 0.000104935 0)
(0.0973049 0.000131181 0)
(0.09726 0.00016325 0)
(0.097205 0.000202077 0)
(0.0971381 0.000248769 0)
(0.0970576 0.00030464 0)
(0.0969612 0.000371268 0)
(0.0968466 0.00045055 0)
(0.0967113 0.000544794 0)
(0.0965522 0.000656823 0)
(0.0963662 0.000790111 0)
(0.0961495 0.000948972 0)
(0.0958983 0.0011388 0)
(0.095608 0.00136637 0)
(0.0952739 0.00164027 0)
(0.094891 0.00197145 0)
(0.0944546 0.0023739 0)
(0.0939601 0.00286552 0)
(0.0934049 0.00346923 0)
(0.0927889 0.004214 0)
(0.092118 0.00513576 0)
(0.0914071 0.00627728 0)
(0.0906866 0.00768533 0)
(0.0900098 0.00940179 0)
(0.089461 0.0114429 0)
(0.089159 0.0137579 0)
(0.0892417 0.016159 0)
(0.0897916 0.0182304 0)
(0.100003 -9.18183e-06 0)
(0.100013 -8.13696e-06 0)
(0.100019 6.48109e-06 0)
(0.100011 3.43537e-05 0)
(0.099979 7.08349e-05 0)
(0.0999202 0.000108613 0)
(0.0998365 0.000140636 0)
(0.0997338 0.00016258 0)
(0.0996201 0.000173671 0)
(0.0995027 0.000175905 0)
(0.0993868 0.00017253 0)
(0.0992754 0.000166688 0)
(0.0991695 0.000160641 0)
(0.0990692 0.000155606 0)
(0.0989736 0.000151955 0)
(0.0988821 0.000149545 0)
(0.0987939 0.00014801 0)
(0.0987086 0.000146955 0)
(0.098626 0.000146053 0)
(0.0985459 0.000145073 0)
(0.0984683 0.000143872 0)
(0.0983933 0.000142368 0)
(0.0983209 0.000140522 0)
(0.0982512 0.000138316 0)
(0.0981843 0.000135745 0)
(0.0981203 0.000132808 0)
(0.0980593 0.000129505 0)
(0.0980013 0.000125838 0)
(0.0979463 0.000121809 0)
(0.0978945 0.000117423 0)
(0.0978458 0.000112691 0)
(0.0978003 0.000107629 0)
(0.097758 0.000102264 0)
(0.0977189 9.66321e-05 0)
(0.0976829 9.07829e-05 0)
(0.0976499 8.47789e-05 0)
(0.0976199 7.86996e-05 0)
(0.0975928 7.26399e-05 0)
(0.0975684 6.67132e-05 0)
(0.0975465 6.10512e-05 0)
(0.0975268 5.58058e-05 0)
(0.0975092 5.11511e-05 0)
(0.0974932 4.72827e-05 0)
(0.0974784 4.44208e-05 0)
(0.0974646 4.28122e-05 0)
(0.097451 4.27322e-05 0)
(0.0974374 4.44874e-05 0)
(0.0974229 4.84215e-05 0)
(0.097407 5.49184e-05 0)
(0.0973889 6.441e-05 0)
(0.0973678 7.73829e-05 0)
(0.0973429 9.4388e-05 0)
(0.0973131 0.000116053 0)
(0.0972774 0.000143098 0)
(0.0972347 0.000176349 0)
(0.0971837 0.000216767 0)
(0.0971231 0.000265473 0)
(0.0970513 0.000323778 0)
(0.0969667 0.000393233 0)
(0.0968676 0.000475678 0)
(0.0967521 0.000573311 0)
(0.096618 0.00068877 0)
(0.0964631 0.000825241 0)
(0.0962852 0.00098659 0)
(0.0960816 0.00117753 0)
(0.0958499 0.00140385 0)
(0.0955875 0.00167262 0)
(0.0952924 0.00199261 0)
(0.0949627 0.00237457 0)
(0.0945979 0.00283176 0)
(0.0941991 0.00338037 0)
(0.0937702 0.00403993 0)
(0.0933197 0.00483351 0)
(0.0928624 0.00578721 0)
(0.092423 0.00692842 0)
(0.092039 0.00828143 0)
(0.0917639 0.0098586 0)
(0.0916678 0.0116443 0)
(0.091831 0.0135701 0)
(0.0923214 0.015483 0)
(0.093143 0.0171258 0)
(0.100003 -1.13704e-05 0)
(0.100013 -1.05649e-05 0)
(0.100021 6.60191e-06 0)
(0.100016 3.98157e-05 0)
(0.0999883 8.36561e-05 0)
(0.0999353 0.000129432 0)
(0.0998577 0.000168649 0)
(0.0997609 0.000195984 0)
(0.0996519 0.000210321 0)
(0.0995379 0.000213891 0)
(0.0994241 0.000210497 0)
(0.0993137 0.000203885 0)
(0.0992083 0.000196803 0)
(0.0991079 0.000190772 0)
(0.0990123 0.000186304 0)
(0.0989208 0.000183282 0)
(0.0988327 0.000181303 0)
(0.0987477 0.000179916 0)
(0.0986655 0.00017874 0)
(0.0985859 0.000177498 0)
(0.0985088 0.000176018 0)
(0.0984343 0.0001742 0)
(0.0983624 0.000171992 0)
(0.0982932 0.000169372 0)
(0.0982267 0.000166331 0)
(0.0981629 0.000162869 0)
(0.098102 0.000158986 0)
(0.0980439 0.000154683 0)
(0.0979887 0.000149966 0)
(0.0979365 0.000144842 0)
(0.0978872 0.000139325 0)
(0.0978408 0.000133439 0)
(0.0977974 0.000127216 0)
(0.0977569 0.000120703 0)
(0.0977192 0.000113961 0)
(0.0976842 0.000107068 0)
(0.0976519 0.000100121 0)
(0.0976222 9.32353e-05 0)
(0.0975947 8.65492e-05 0)
(0.0975695 8.02225e-05 0)
(0.0975461 7.44387e-05 0)
(0.0975243 6.94073e-05 0)
(0.0975038 6.5364e-05 0)
(0.0974842 6.25736e-05 0)
(0.0974651 6.13309e-05 0)
(0.0974461 6.19652e-05 0)
(0.0974265 6.4843e-05 0)
(0.0974059 7.03723e-05 0)
(0.0973836 7.90089e-05 0)
(0.0973589 9.12632e-05 0)
(0.0973311 0.000107707 0)
(0.0972993 0.000128988 0)
(0.0972628 0.000155836 0)
(0.0972205 0.000189087 0)
(0.0971715 0.000229695 0)
(0.0971146 0.000278758 0)
(0.0970487 0.000337548 0)
(0.0969727 0.000407545 0)
(0.0968851 0.000490476 0)
(0.0967846 0.000588371 0)
(0.0966697 0.000703623 0)
(0.0965391 0.000839065 0)
(0.0963912 0.000998063 0)
(0.0962246 0.00118463 0)
(0.0960381 0.00140355 0)
(0.0958306 0.00166053 0)
(0.0956014 0.00196242 0)
(0.0953508 0.00231734 0)
(0.0950797 0.00273492 0)
(0.0947911 0.00322646 0)
(0.0944898 0.00380502 0)
(0.0941842 0.0044853 0)
(0.0938869 0.00528319 0)
(0.0936166 0.00621461 0)
(0.0933993 0.00729327 0)
(0.0932698 0.00852668 0)
(0.0932712 0.00990954 0)
(0.0934525 0.0114141 0)
(0.0938605 0.0129782 0)
(0.0945226 0.0144945 0)
(0.0954194 0.0158122 0)
(0.100003 -1.37703e-05 0)
(0.100014 -1.34543e-05 0)
(0.100023 6.02577e-06 0)
(0.100021 4.44152e-05 0)
(0.0999986 9.56122e-05 0)
(0.0999522 0.000149611 0)
(0.0998818 0.000196469 0)
(0.0997918 0.000229787 0)
(0.0996885 0.000248 0)
(0.0995786 0.000253468 0)
(0.0994675 0.000250481 0)
(0.0993586 0.000243366 0)
(0.0992539 0.000235375 0)
(0.0991538 0.000228369 0)
(0.0990584 0.000223037 0)
(0.098967 0.000219322 0)
(0.0988793 0.000216811 0)
(0.0987947 0.00021501 0)
(0.0987131 0.000213489 0)
(0.0986342 0.000211933 0)
(0.0985579 0.000210138 0)
(0.0984841 0.000207981 0)
(0.0984129 0.0002054 0)
(0.0983444 0.000202366 0)
(0.0982784 0.000198866 0)
(0.0982151 0.000194898 0)
(0.0981545 0.000190463 0)
(0.0980966 0.000185563 0)
(0.0980414 0.000180206 0)
(0.0979889 0.000174405 0)
(0.0979392 0.000168177 0)
(0.0978921 0.000161553 0)
(0.0978477 0.000154574 0)
(0.0978058 0.000147298 0)
(0.0977665 0.000139799 0)
(0.0977297 0.000132172 0)
(0.0976951 0.00012453 0)
(0.0976627 0.000117013 0)
(0.0976322 0.000109783 0)
(0.0976035 0.000103028 0)
(0.0975763 9.69654e-05 0)
(0.0975503 9.18388e-05 0)
(0.0975253 8.7924e-05 0)
(0.0975007 8.55295e-05 0)
(0.0974763 8.49981e-05 0)
(0.0974516 8.67112e-05 0)
(0.097426 9.10919e-05 0)
(0.0973992 9.86102e-05 0)
(0.0973704 0.000109789 0)
(0.0973391 0.00012521 0)
(0.0973046 0.000145525 0)
(0.0972662 0.000171463 0)
(0.0972231 0.000203846 0)
(0.0971746 0.000243604 0)
(0.0971197 0.000291795 0)
(0.0970577 0.000349622 0)
(0.0969875 0.000418468 0)
(0.0969083 0.000499921 0)
(0.096819 0.000595817 0)
(0.0967189 0.000708281 0)
(0.0966069 0.000839779 0)
(0.0964822 0.000993185 0)
(0.0963441 0.00117184 0)
(0.0961922 0.00137964 0)
(0.0960263 0.00162112 0)
(0.0958467 0.00190153 0)
(0.0956544 0.00222692 0)
(0.0954513 0.00260424 0)
(0.0952406 0.00304129 0)
(0.0950273 0.00354676 0)
(0.0948186 0.00412997 0)
(0.0946246 0.00480054 0)
(0.0944592 0.0055676 0)
(0.0943405 0.00643859 0)
(0.0942912 0.00741731 0)
(0.0943387 0.00850105 0)
(0.0945137 0.0096766 0)
(0.0948467 0.0109155 0)
(0.0953617 0.0121695 0)
(0.0960663 0.0133686 0)
(0.0969391 0.0144266 0)
(0.100003 -1.63998e-05 0)
(0.100014 -1.68707e-05 0)
(0.100025 4.60065e-06 0)
(0.100026 4.78861e-05 0)
(0.100009 0.000106323 0)
(0.0999701 0.000168689 0)
(0.0999076 0.000223617 0)
(0.0998252 0.000263556 0)
(0.0997284 0.000286367 0)
(0.0996234 0.000294408 0)
(0.0995156 0.000292361 0)
(0.0994088 0.000285102 0)
(0.0993051 0.000276388 0)
(0.0992057 0.000268458 0)
(0.0991107 0.000262226 0)
(0.0990198 0.000257735 0)
(0.0989326 0.000254591 0)
(0.0988488 0.000252279 0)
(0.0987679 0.000250332 0)
(0.0986899 0.000248397 0)
(0.0986146 0.00024624 0)
(0.0985418 0.000243716 0)
(0.0984716 0.00024075 0)
(0.0984039 0.000237302 0)
(0.0983387 0.000233356 0)
(0.0982761 0.000228907 0)
(0.098216 0.000223957 0)
(0.0981585 0.000218511 0)
(0.0981034 0.000212579 0)
(0.0980509 0.000206177 0)
(0.0980008 0.000199332 0)
(0.0979531 0.000192081 0)
(0.0979079 0.000184476 0)
(0.0978649 0.000176585 0)
(0.0978241 0.000168499 0)
(0.0977854 0.000160326 0)
(0.0977486 0.000152204 0)
(0.0977136 0.000144292 0)
(0.0976801 0.000136777 0)
(0.097648 0.000129878 0)
(0.0976171 0.000123843 0)
(0.0975869 0.000118949 0)
(0.0975573 0.000115513 0)
(0.0975278 0.000113883 0)
(0.0974981 0.000114449 0)
(0.0974678 0.000117639 0)
(0.0974364 0.000123931 0)
(0.0974034 0.000133848 0)
(0.0973684 0.000147975 0)
(0.0973307 0.000166954 0)
(0.0972899 0.000191504 0)
(0.0972452 0.000222421 0)
(0.0971962 0.000260599 0)
(0.0971421 0.000307036 0)
(0.0970823 0.000362859 0)
(0.097016 0.000429338 0)
(0.0969428 0.000507913 0)
(0.0968619 0.000600216 0)
(0.0967728 0.000708107 0)
(0.096675 0.000833703 0)
(0.096568 0.000979415 0)
(0.0964518 0.00114799 0)
(0.0963262 0.00134257 0)
(0.0961917 0.00156667 0)
(0.0960492 0.00182431 0)
(0.0958998 0.00211994 0)
(0.095746 0.00245852 0)
(0.0955907 0.00284541 0)
(0.0954384 0.00328634 0)
(0.0952952 0.00378719 0)
(0.0951689 0.0043537 0)
(0.0950697 0.00499099 0)
(0.0950103 0.00570284 0)
(0.0950059 0.0064907 0)
(0.0950743 0.00735233 0)
(0.0952349 0.00828011 0)
(0.0955073 0.00925908 0)
(0.0959086 0.010265 0)
(0.0964498 0.0112635 0)
(0.09713 0.0122104 0)
(0.0979319 0.0130569 0)
(0.100003 -1.92729e-05 0)
(0.100015 -2.08649e-05 0)
(0.100027 2.2036e-06 0)
(0.100031 5.00051e-05 0)
(0.10002 0.000115455 0)
(0.0999881 0.000186249 0)
(0.0999338 0.000249634 0)
(0.0998595 0.000296851 0)
(0.0997698 0.000325044 0)
(0.0996704 0.000336425 0)
(0.0995666 0.000335952 0)
(0.0994624 0.00032899 0)
(0.0993604 0.000319805 0)
(0.0992621 0.000311046 0)
(0.0991679 0.000303899 0)
(0.0990777 0.000298554 0)
(0.0989914 0.000294675 0)
(0.0989084 0.000291748 0)
(0.0988287 0.000289283 0)
(0.0987518 0.000286897 0)
(0.0986776 0.000284326 0)
(0.098606 0.000281404 0)
(0.0985369 0.000278038 0)
(0.0984703 0.000274179 0)
(0.0984061 0.000269805 0)
(0.0983443 0.000264909 0)
(0.0982849 0.000259493 0)
(0.0982278 0.000253563 0)
(0.0981731 0.000247135 0)
(0.0981206 0.000240231 0)
(0.0980703 0.000232884 0)
(0.0980222 0.000225141 0)
(0.0979762 0.000217065 0)
(0.0979321 0.000208738 0)
(0.0978899 0.000200266 0)
(0.0978494 0.000191777 0)
(0.0978105 0.000183424 0)
(0.0977729 0.000175392 0)
(0.0977366 0.000167894 0)
(0.0977012 0.000161175 0)
(0.0976665 0.000155513 0)
(0.0976323 0.000151221 0)
(0.0975982 0.000148649 0)
(0.0975639 0.000148185 0)
(0.0975291 0.000150259 0)
(0.0974934 0.000155343 0)
(0.0974564 0.000163958 0)
(0.0974176 0.000176679 0)
(0.0973767 0.000194135 0)
(0.0973332 0.000217021 0)
(0.0972866 0.000246101 0)
(0.0972365 0.00028222 0)
(0.0971823 0.000326317 0)
(0.0971236 0.000379428 0)
(0.0970599 0.00044271 0)
(0.0969908 0.000517451 0)
(0.096916 0.000605089 0)
(0.0968351 0.000707229 0)
(0.096748 0.000825667 0)
(0.0966545 0.000962407 0)
(0.0965548 0.00111968 0)
(0.0964492 0.00129997 0)
(0.0963384 0.00150602 0)
(0.0962233 0.00174084 0)
(0.0961056 0.00200768 0)
(0.0959873 0.00231003 0)
(0.0958713 0.00265157 0)
(0.0957615 0.00303602 0)
(0.0956626 0.00346703 0)
(0.0955809 0.00394796 0)
(0.0955237 0.00448152 0)
(0.0955001 0.0050694 0)
(0.0955204 0.00571171 0)
(0.0955964 0.00640629 0)
(0.0957405 0.00714795 0)
(0.0959654 0.00792765 0)
(0.0962827 0.00873172 0)
(0.096701 0.00954143 0)
(0.0972239 0.0103332 0)
(0.0978481 0.0110797 0)
(0.0985605 0.0117531 0)
(0.100003 -2.23961e-05 0)
(0.100015 -2.54649e-05 0)
(0.100029 -1.24121e-06 0)
(0.100036 5.06202e-05 0)
(0.10003 0.000122765 0)
(0.100005 0.000201956 0)
(0.0999589 0.000274127 0)
(0.0998928 0.000329259 0)
(0.0998106 0.000363647 0)
(0.0997174 0.000379191 0)
(0.0996182 0.000380998 0)
(0.0995173 0.000374851 0)
(0.0994177 0.000365513 0)
(0.099321 0.000356069 0)
(0.099228 0.000348027 0)
(0.099139 0.000341771 0)
(0.0990538 0.000337063 0)
(0.098972 0.00033342 0)
(0.0988935 0.000330346 0)
(0.0988179 0.000327435 0)
(0.0987451 0.000324397 0)
(0.0986748 0.000321046 0)
(0.098607 0.00031727 0)
(0.0985416 0.000313009 0)
(0.0984785 0.000308234 0)
(0.0984177 0.000302935 0)
(0.098359 0.000297113 0)
(0.0983025 0.00029078 0)
(0.0982481 0.000283954 0)
(0.0981958 0.000276665 0)
(0.0981454 0.000268955 0)
(0.0980969 0.000260881 0)
(0.0980501 0.000252519 0)
(0.098005 0.000243966 0)
(0.0979614 0.000235342 0)
(0.0979191 0.000226795 0)
(0.0978781 0.000218498 0)
(0.0978381 0.000210658 0)
(0.0977989 0.000203512 0)
(0.0977603 0.000197331 0)
(0.097722 0.000192421 0)
(0.0976838 0.000189126 0)
(0.0976454 0.000187827 0)
(0.0976066 0.000188946 0)
(0.0975669 0.000192945 0)
(0.0975261 0.000200336 0)
(0.0974839 0.000211673 0)
(0.0974398 0.000227567 0)
(0.0973936 0.000248681 0)
(0.0973449 0.000275742 0)
(0.0972933 0.000309543 0)
(0.0972385 0.000350952 0)
(0.0971802 0.00040092 0)
(0.097118 0.000460487 0)
(0.0970518 0.000530796 0)
(0.0969814 0.000613101 0)
(0.0969066 0.000708777 0)
(0.0968274 0.000819332 0)
(0.096744 0.000946414 0)
(0.0966568 0.00109182 0)
(0.0965661 0.0012575 0)
(0.0964729 0.00144555 0)
(0.0963782 0.00165822 0)
(0.0962835 0.00189785 0)
(0.0961908 0.00216688 0)
(0.0961026 0.00246778 0)
(0.0960221 0.00280292 0)
(0.0959532 0.00317453 0)
(0.0959006 0.00358444 0)
(0.0958698 0.00403399 0)
(0.0958673 0.00452365 0)
(0.0959002 0.00505284 0)
(0.0959764 0.00561947 0)
(0.0961042 0.00621964 0)
(0.0962917 0.00684727 0)
(0.0965465 0.00749376 0)
(0.0968747 0.00814789 0)
(0.09728 0.00879589 0)
(0.0977628 0.00942192 0)
(0.0983188 0.0100092 0)
(0.0989388 0.0105414 0)
(0.100003 -2.57674e-05 0)
(0.100015 -3.0671e-05 0)
(0.10003 -5.75182e-06 0)
(0.10004 4.96727e-05 0)
(0.100038 0.000128127 0)
(0.10002 0.000215604 0)
(0.0999816 0.00029681 0)
(0.0999236 0.000360438 0)
(0.099849 0.000401809 0)
(0.0997623 0.000422354 0)
(0.0996683 0.00042719 0)
(0.0995714 0.000422434 0)
(0.0994747 0.000413321 0)
(0.0993802 0.000403393 0)
(0.099289 0.000394519 0)
(0.0992016 0.00038733 0)
(0.0991178 0.000381724 0)
(0.0990375 0.00037728 0)
(0.0989605 0.000373515 0)
(0.0988864 0.000370013 0)
(0.098815 0.000366464 0)
(0.0987462 0.000362659 0)
(0.0986798 0.000358472 0)
(0.0986156 0.000353828 0)
(0.0985536 0.000348691 0)
(0.0984937 0.000343048 0)
(0.0984359 0.0003369 0)
(0.09838 0.000330262 0)
(0.0983259 0.000323158 0)
(0.0982737 0.000315627 0)
(0.0982231 0.000307718 0)
(0.0981741 0.000299503 0)
(0.0981266 0.000291069 0)
(0.0980804 0.000282529 0)
(0.0980354 0.00027402 0)
(0.0979914 0.000265706 0)
(0.0979483 0.000257782 0)
(0.0979058 0.000250474 0)
(0.0978638 0.000244042 0)
(0.097822 0.000238782 0)
(0.0977803 0.000235023 0)
(0.0977383 0.000233135 0)
(0.0976959 0.000233524 0)
(0.0976527 0.00023664 0)
(0.0976085 0.000242972 0)
(0.097563 0.000253054 0)
(0.0975161 0.000267468 0)
(0.0974673 0.000286842 0)
(0.0974164 0.000311859 0)
(0.0973633 0.000343257 0)
(0.0973076 0.000381833 0)
(0.0972491 0.000428449 0)
(0.0971878 0.000484037 0)
(0.0971234 0.000549602 0)
(0.0970561 0.00062623 0)
(0.0969857 0.000715088 0)
(0.0969124 0.000817432 0)
(0.0968366 0.000934608 0)
(0.0967586 0.00106805 0)
(0.096679 0.00121927 0)
(0.0965988 0.00138986 0)
(0.0965189 0.00158146 0)
(0.0964409 0.00179577 0)
(0.0963664 0.00203443 0)
(0.0962976 0.00229908 0)
(0.0962372 0.00259118 0)
(0.0961882 0.002912 0)
(0.0961543 0.00326249 0)
(0.0961396 0.00364309 0)
(0.0961488 0.00405368 0)
(0.0961868 0.0044933 0)
(0.096259 0.00496003 0)
(0.0963711 0.00545079 0)
(0.0965283 0.00596116 0)
(0.0967356 0.0064853 0)
(0.0969972 0.00701589 0)
(0.0973159 0.00754424 0)
(0.0976925 0.0080605 0)
(0.098126 0.00855417 0)
(0.0986124 0.00901471 0)
(0.0991451 0.00943257 0)
(0.100003 -2.93761e-05 0)
(0.100015 -3.64556e-05 0)
(0.10003 -1.12862e-05 0)
(0.100043 4.72027e-05 0)
(0.100045 0.000131547 0)
(0.100032 0.000227132 0)
(0.100001 0.00031753 0)
(0.0999506 0.000390144 0)
(0.0998834 0.000439218 0)
(0.0998034 0.000465567 0)
(0.0997151 0.000474182 0)
(0.0996227 0.000471427 0)
(0.0995295 0.000462967 0)
(0.0994378 0.000452812 0)
(0.099349 0.000443228 0)
(0.0992635 0.00043513 0)
(0.0991815 0.000428595 0)
(0.099103 0.000423294 0)
(0.0990276 0.000418781 0)
(0.0989551 0.000414642 0)
(0.0988853 0.000410552 0)
(0.0988179 0.000406287 0)
(0.0987529 0.000401702 0)
(0.09869 0.000396711 0)
(0.0986291 0.000391271 0)
(0.0985701 0.000385363 0)
(0.098513 0.000378991 0)
(0.0984576 0.000372171 0)
(0.0984038 0.000364936 0)
(0.0983516 0.00035733 0)
(0.0983008 0.000349418 0)
(0.0982513 0.000341279 0)
(0.0982029 0.000333017 0)
(0.0981555 0.00032476 0)
(0.098109 0.00031666 0)
(0.0980632 0.000308898 0)
(0.098018 0.000301689 0)
(0.097973 0.000295278 0)
(0.0979282 0.000289942 0)
(0.0978834 0.000285997 0)
(0.0978383 0.000283794 0)
(0.0977927 0.000283721 0)
(0.0977464 0.000286204 0)
(0.0976992 0.000291709 0)
(0.0976508 0.000300742 0)
(0.0976012 0.00031385 0)
(0.09755 0.000331624 0)
(0.0974972 0.000354697 0)
(0.0974424 0.000383749 0)
(0.0973857 0.000419508 0)
(0.0973268 0.00046275 0)
(0.0972658 0.0005143 0)
(0.0972026 0.000575039 0)
(0.0971374 0.000645898 0)
(0.0970701 0.000727863 0)
(0.0970012 0.000821973 0)
(0.0969308 0.000929316 0)
(0.0968596 0.00105102 0)
(0.0967882 0.00118826 0)
(0.0967174 0.00134222 0)
(0.0966483 0.0015141 0)
(0.096582 0.00170506 0)
(0.0965203 0.00191622 0)
(0.0964649 0.00214861 0)
(0.0964179 0.00240308 0)
(0.0963818 0.0026803 0)
(0.0963594 0.00298062 0)
(0.0963539 0.00330402 0)
(0.0963685 0.00365001 0)
(0.0964069 0.00401752 0)
(0.0964728 0.00440482 0)
(0.0965699 0.00480941 0)
(0.096702 0.00522794 0)
(0.0968722 0.00565622 0)
(0.0970832 0.00608917 0)
(0.0973371 0.00652093 0)
(0.0976346 0.006945 0)
(0.0979755 0.00735445 0)
(0.0983579 0.00774229 0)
(0.0987787 0.00810185 0)
(0.099233 0.00842732 0)
(0.100003 -3.32045e-05 0)
(0.100015 -4.27672e-05 0)
(0.100031 -1.77505e-05 0)
(0.100044 4.33377e-05 0)
(0.10005 0.000133154 0)
(0.100042 0.000236618 0)
(0.100016 0.000336276 0)
(0.0999728 0.000418249 0)
(0.0999127 0.000475638 0)
(0.0998394 0.000508516 0)
(0.0997569 0.000521627 0)
(0.0996695 0.000521484 0)
(0.0995805 0.000514143 0)
(0.0994922 0.000504072 0)
(0.0994061 0.000493957 0)
(0.099323 0.000485032 0)
(0.0992432 0.000477588 0)
(0.0991666 0.000471419 0)
(0.099093 0.000466136 0)
(0.0990223 0.000461342 0)
(0.098954 0.000456709 0)
(0.0988882 0.000451999 0)
(0.0988244 0.000447055 0)
(0.0987627 0.000441778 0)
(0.0987028 0.000436117 0)
(0.0986447 0.000430051 0)
(0.0985882 0.000423583 0)
(0.0985332 0.000416734 0)
(0.0984795 0.000409543 0)
(0.0984272 0.000402064 0)
(0.0983759 0.000394371 0)
(0.0983257 0.000386559 0)
(0.0982764 0.000378743 0)
(0.0982277 0.000371066 0)
(0.0981796 0.000363695 0)
(0.0981319 0.000356829 0)
(0.0980845 0.000350696 0)
(0.098037 0.000345557 0)
(0.0979895 0.000341706 0)
(0.0979416 0.000339473 0)
(0.0978933 0.000339222 0)
(0.0978442 0.000341353 0)
(0.0977944 0.000346303 0)
(0.0977435 0.000354545 0)
(0.0976915 0.000366589 0)
(0.0976382 0.000382981 0)
(0.0975834 0.000404305 0)
(0.0975272 0.000431181 0)
(0.0974694 0.000464266 0)
(0.09741 0.000504253 0)
(0.097349 0.00055187 0)
(0.0972864 0.000607881 0)
(0.0972226 0.000673081 0)
(0.0971575 0.000748296 0)
(0.0970916 0.000834378 0)
(0.0970253 0.000932199 0)
(0.096959 0.00104265 0)
(0.0968934 0.00116661 0)
(0.0968294 0.00130495 0)
(0.0967678 0.00145854 0)
(0.0967098 0.00162816 0)
(0.0966567 0.00181454 0)
(0.0966102 0.00201826 0)
(0.0965718 0.0022398 0)
(0.0965437 0.0024794 0)
(0.0965279 0.00273708 0)
(0.0965267 0.00301253 0)
(0.0965428 0.0033051 0)
(0.0965785 0.00361371 0)
(0.0966367 0.00393683 0)
(0.0967199 0.00427239 0)
(0.0968305 0.00461781 0)
(0.0969706 0.00496993 0)
(0.0971422 0.00532509 0)
(0.0973465 0.00567915 0)
(0.0975841 0.00602758 0)
(0.097855 0.00636563 0)
(0.0981581 0.00668845 0)
(0.0984918 0.00699135 0)
(0.0988533 0.00727003 0)
(0.099239 0.00752087 0)
(0.100003 -3.72296e-05 0)
(0.100014 -4.95377e-05 0)
(0.10003 -2.50153e-05 0)
(0.100045 3.82677e-05 0)
(0.100053 0.000133167 0)
(0.100048 0.000244256 0)
(0.100028 0.000353156 0)
(0.0999903 0.000444742 0)
(0.0999366 0.000510925 0)