/*--------------------------------*- C++ -*----------------------------------*\
| =========                 |                                                 |
| \\      /  F ield         | OpenFOAM: The Open Source CFD Toolbox           |
|  \\    /   O peration     | Version:  5.x                                   |
|   \\  /    A nd           | Web:      www.OpenFOAM.org                      |
|    \\/     M anipulation  |                                                 |
\*---------------------------------------------------------------------------*/
FoamFile
{
    version     2.0;
    format      ascii;
    class       surfaceScalarField;
    location    "4.3";
    object      meshPhi;
}
// * * * * * * * * * * * * * * * * * * * * * * * * * * * * * * * * * * * * * //

dimensions      [0 3 -1 0 0 0 0];

internalField   nonuniform List<scalar> 
5457
(
8.02755e-05
-1.09134e-06
0.000153157
-3.10528e-06
0.000217392
-4.8413e-06
0.000274339
-6.33531e-06
0.00032515
-7.6356e-06
0.00037076
-8.77345e-06
0.000411939
-9.76578e-06
0.000449326
-1.0617e-05
0.000483456
-1.13199e-05
0.000514768
-1.18561e-05
0.000543594
-1.21956e-05
0.000570132
-1.22971e-05
0.000594407
-1.21071e-05
0.000616218
-1.15606e-05
0.000635072
-1.0582e-05
0.000650109
-9.08926e-06
0.000660096
-6.99167e-06
0.000663758
-4.15623e-06
0.000659489
-4.21618e-07
0.00064443
4.29824e-06
0.000615229
1.00654e-05
0.000569413
1.70821e-05
0.000505947
2.56817e-05
0.000424629
3.61548e-05
0.000325794
4.85707e-05
0.000211869
6.26778e-05
8.96477e-05
7.76503e-05
-2.65963e-05
9.15497e-05
-0.000111104
0.000101192
7.39759e-05
8.00527e-05
-2.17959e-06
0.000152738
-6.2021e-06
0.000216803
-9.67037e-06
0.0002736
-1.26564e-05
0.000324274
-1.52572e-05
0.000369757
-1.75355e-05
0.000410815
-1.95262e-05
0.000448089
-2.1239e-05
0.000482117
-2.26611e-05
0.000513351
-2.37574e-05
0.000542146
-2.44705e-05
0.000568737
-2.47206e-05
0.000593203
-2.44042e-05
0.000615423
-2.33939e-05
0.000635019
-2.15412e-05
0.000651237
-1.86881e-05
0.000662771
-1.46809e-05
0.000668647
-9.25879e-06
0.000668133
-2.04036e-06
0.000658351
7.11498e-06
0.000635389
1.81975e-05
0.000596521
3.15516e-05
0.000541436
4.79106e-05
0.000470822
6.79757e-05
0.000384711
9.2007e-05
0.000284405
0.000119894
0.000174095
0.000151164
6.34015e-05
0.00018453
-2.35611e-05
0.00021705
0.000242666
7.95518e-05
-3.25809e-06
0.000151799
-9.27138e-06
0.000215491
-1.44572e-05
0.000271957
-1.89241e-05
0.00032233
-2.28176e-05
0.000367538
-2.62333e-05
0.000408342
-2.92247e-05
0.000445379
-3.18091e-05
0.000479198
-3.39705e-05
0.000510274
-3.56607e-05
0.000539007
-3.67994e-05
0.000565704
-3.72734e-05
0.000590547
-3.69359e-05
0.000613567
-3.56033e-05
0.000634626
-3.30559e-05
0.000653298
-2.90587e-05
0.000667799
-2.34761e-05
0.000677565
-1.59598e-05
0.000684493
-5.69474e-06
0.000685609
7.47888e-06
0.00067542
2.31095e-05
0.000650052
4.15004e-05
0.000611068
6.39308e-05
0.000562118
9.176e-05
0.000502957
0.000125341
0.000434477
0.000164567
0.000359835
0.000209473
0.000286793
0.00025967
0.000239046
0.000312242
0.000394197
7.87849e-05
-4.3203e-06
0.000150364
-1.22944e-05
0.000213484
-1.91724e-05
0.000269444
-2.50995e-05
0.000319362
-3.02704e-05
0.000364156
-3.4814e-05
0.00040458
-3.88045e-05
0.000441269
-4.22692e-05
0.000474779
-4.51929e-05
0.00050562
-4.7519e-05
0.000534257
-4.91503e-05
0.000561095
-4.99487e-05
0.000586453
-4.97339e-05
0.000610559
-4.82779e-05
0.000633639
-4.52905e-05
0.000656328
-4.04021e-05
0.000675033
-3.36957e-05
0.000688651
-2.49586e-05
0.000703312
-1.29966e-05
0.000718054
2.39739e-06
0.00072706
2.08033e-05
0.000724172
4.29314e-05
0.000710631
7.02619e-05
0.000693585
0.000103815
0.000675074
0.000143453
0.000657113
0.000188697
0.000644357
0.0002387
0.000645908
0.000291119
0.000680007
0.000340042
0.000409327
7.77985e-05
-5.3637e-06
0.00014851
-1.52642e-05
0.000210882
-2.38059e-05
0.000266177
-3.1171e-05
0.000315498
-3.76039e-05
0.000359754
-4.32679e-05
0.000399688
-4.82598e-05
0.000435925
-5.26207e-05
0.000469028
-5.63409e-05
0.000499543
-5.93622e-05
0.000528013
-6.15783e-05
0.000554961
-6.2836e-05
0.000580867
-6.29372e-05
0.000606131
-6.16323e-05
0.000631122
-5.85924e-05
0.000657867
-5.35643e-05
0.000682242
-4.67187e-05
0.000701071
-3.76519e-05
0.000720849
-2.55093e-05
0.000746437
-1.00857e-05
0.00077649
9.29948e-06
0.000804957
3.39925e-05
0.000828175
6.47038e-05
0.000851613
0.000101026
0.00088249
0.000142282
0.0009247
0.000187493
0.000983519
0.000233878
0.0010654
0.00027567
0.00117257
0.000303689
0.000300557
7.66155e-05
-6.38842e-06
0.000146273
-1.81816e-05
0.000207723
-2.83602e-05
0.000262192
-3.71441e-05
0.000310769
-4.48277e-05
0.000354358
-5.16103e-05
0.000393688
-5.76139e-05
0.000429358
-6.28974e-05
0.000461925
-6.74632e-05
0.000491972
-7.12585e-05
0.000520124
-7.41775e-05
0.000547037
-7.6063e-05
0.000573372
-7.67167e-05
0.000599686
-7.59011e-05
0.000626205
-7.33578e-05
0.000654626
-6.91414e-05
0.000685484
-6.29907e-05
0.000714646
-5.39909e-05
0.000742542
-4.2057e-05
0.000778549
-2.70922e-05
0.00082664
-7.83642e-06
0.000884697
1.68534e-05
0.000946822
4.70232e-05
0.001014
8.1844e-05
0.00109483
0.000120512
0.00119346
0.000161562
0.00131214
0.000201449
0.00144732
0.000234006
0.00158099
0.000251287
0.000222261
7.5247e-05
-7.39368e-06
0.000143668
-2.10447e-05
0.000204019
-3.28331e-05
0.000257494
-4.30171e-05
0.000305171
-5.1942e-05
0.000347957
-5.9844e-05
0.000386558
-6.68728e-05
0.000421527
-7.31103e-05
0.000453393
-7.85779e-05
0.000482765
-8.32364e-05
0.000510344
-8.69906e-05
0.000536925
-8.96879e-05
0.000563385
-9.11331e-05
0.000590558
-9.11177e-05
0.000618901
-8.94724e-05
0.000648894
-8.62415e-05
0.000685568
-8.09526e-05
0.000726564
-7.28278e-05
0.000768092
-6.19806e-05
0.000818397
-4.83074e-05
0.000882462
-3.09587e-05
0.000961356
-9.33311e-06
0.00105281
1.65737e-05
0.00115757
4.62681e-05
0.00128064
7.89865e-05
0.0014233
0.000113417
0.00158205
0.000147237
0.00174234
0.000177192
0.00187319
0.000199532
0.000244529
7.37004e-05
-8.37667e-06
0.000140708
-2.38455e-05
0.000199785
-3.72123e-05
0.00025209
-4.87743e-05
0.000298701
-5.89282e-05
0.00034054
-6.79477e-05
0.000378294
-7.60122e-05
0.000412426
-8.32311e-05
0.0004434
-8.9654e-05
0.000471838
-9.52618e-05
0.000498496
-9.99728e-05
0.000524287
-0.00010365
0.000550334
-0.000106107
0.000577923
-0.000107159
0.000608263
-0.000106655
0.000642194
-0.000104524
0.000683957
-0.00010053
0.000733133
-9.4364e-05
0.000787368
-8.60113e-05
0.000851355
-7.53442e-05
0.000929018
-6.19506e-05
0.00102264
-4.55643e-05
0.00113359
-2.62656e-05
0.00126409
-4.43843e-06
0.0014164
1.93517e-05
0.00158844
4.44879e-05
0.00177222
7.02395e-05
0.00194817
9.5833e-05
0.00208296
0.000119629
0.000147449
7.19869e-05
-9.33387e-06
0.000137413
-2.6574e-05
0.000195041
-4.14819e-05
0.000245996
-5.43948e-05
0.000291364
-6.57607e-05
0.000332117
-7.58908e-05
0.000368927
-8.49937e-05
0.000402104
-9.32119e-05
0.000431988
-0.000100625
0.0004592
-0.000107242
0.00048452
-0.000113009
0.000508928
-0.00011782
0.000533777
-0.000121514
0.000560887
-0.000123906
0.00059238
-0.000124845
0.000630043
-0.000124279
0.000676085
-0.000122195
0.000730864
-0.000118607
0.000793664
-0.000113632
0.000866565
-0.000107292
0.000952812
-9.94637e-05
0.00105543
-9.01293e-05
0.0011771
-7.95023e-05
0.00132027
-6.79659e-05
0.00148625
-5.59387e-05
0.00167227
-4.36247e-05
0.00186942
-3.09868e-05
0.00205805
-1.81469e-05
0.00220715
-6.63186e-06
3.06881e-05
7.012e-05
-1.02623e-05
0.000133805
-2.92217e-05
0.000189815
-4.56286e-05
0.000239229
-5.98608e-05
0.000283151
-7.24181e-05
0.00032268
-8.36467e-05
0.000358492
-9.37813e-05
0.000390628
-0.000102992
0.000419239
-0.000111395
0.000444933
-0.000119056
0.000468481
-0.000125974
0.000490842
-0.000132076
0.00051346
-0.000137221
0.000538662
-0.000141209
0.000569724
-0.000143852
0.000608927
-0.000145162
0.000657642
-0.000145362
0.000716714
-0.000144777
0.000784856
-0.000143795
0.000861852
-0.000142688
0.000950505
-0.000141543
0.0010542
-0.000140546
0.00117584
-0.000140103
0.00131753
-0.000140727
0.00148001
-0.000142875
0.00166129
-0.000146812
0.00185367
-0.000152616
0.00203676
-0.000161054
0.00217873
-0.000174021
-0.000185626
6.81088e-05
-1.11603e-05
0.000129898
-3.17835e-05
0.000184117
-4.9644e-05
0.00023178
-6.51607e-05
0.000274011
-7.88861e-05
0.00031217
-9.11969e-05
0.000347016
-0.000102333
0.000378097
-0.00011249
0.000405253
-0.000121867
0.000429164
-0.000130612
0.000450543
-0.000138761
0.000470157
-0.000146279
0.00048927
-0.00015306
0.000510481
-0.000158874
0.000539012
-0.000163426
0.000577647
-0.000166754
0.000626803
-0.000169357
0.00068879
-0.00017188
0.000760056
-0.000175119
0.000836386
-0.000179689
0.000920637
-0.000185778
0.00101659
-0.000193694
0.00112672
-0.000204099
0.00125229
-0.000217753
0.00139298
-0.00023531
0.00154641
-0.000257148
0.00170479
-0.000283391
0.0018431
-0.000314265
0.00192328
-0.00034917
-0.000408609
6.59516e-05
-1.20265e-05
0.000125689
-3.42552e-05
0.000177941
-5.35203e-05
0.00022363
-7.02821e-05
0.000263867
-8.51475e-05
0.000300487
-9.85171e-05
0.000334559
-0.0001106
0.000364647
-0.000121636
0.000390087
-0.000131978
0.000411951
-0.00014183
0.00043084
-0.000151239
0.000447107
-0.000160241
0.000461329
-0.000168808
0.000478224
-0.000176532
0.000504792
-0.000182848
0.000541683
-0.000188042
0.000588621
-0.000192959
0.000649195
-0.00019846
0.00071935
-0.000205877
0.000790329
-0.00021619
0.000862967
-0.000229451
0.000942224
-0.000245985
0.00102963
-0.000266767
0.00112487
-0.000292888
0.00122575
-0.000325271
0.00132773
-0.000364288
0.00142017
-0.000409337
0.00147312
-0.000457023
0.00144747
-0.000498492
-0.000519646
6.36372e-05
-1.28587e-05
0.000121161
-3.66302e-05
0.00017128
-5.72454e-05
0.000214782
-7.52048e-05
0.000252621
-9.11761e-05
0.00028744
-0.000105584
0.000321174
-0.000118554
0.000350386
-0.000130386
0.000373659
-0.00014166
0.000393253
-0.0001526
0.000409528
-0.000163231
0.000422215
-0.0001737
0.000432431
-0.000183906
0.000450035
-0.00019305
0.000479122
-0.000200694
0.000514155
-0.000207756
0.000556016
-0.000215207
0.000606661
-0.000223746
0.000666501
-0.00023492
0.00072528
-0.000250213
0.000778447
-0.00026976
0.000832623
-0.000293649
0.000887403
-0.000322988
0.000940042
-0.000359218
0.000985607
-0.000403593
0.00101684
-0.000456808
0.00101922
-0.000518407
0.000965073
-0.00058326
0.000830859
-0.000635635
-0.000618479
6.11474e-05
-1.36547e-05
0.000116295
-3.89016e-05
0.000164135
-6.08051e-05
0.000205303
-7.99024e-05
0.000240118
-9.69401e-05
0.000273351
-0.000112283
0.000307706
-0.000125969
0.000335539
-0.000138559
0.000355824
-0.000150804
0.000373068
-0.000162786
0.000386921
-0.000174515
0.000396552
-0.000186242
0.000407708
-0.000197614
0.000431856
-0.000207688
0.000464251
-0.000216646
0.000496278
-0.000225787
0.00053045
-0.000235876
0.00056667
-0.000247333
0.000607266
-0.00026153
0.000643329
-0.000280377
0.000669696
-0.00030435
0.000692385
-0.000333228
0.00070768
-0.00036793
0.000709659
-0.000409935
0.000690051
-0.000460526
0.000638435
-0.000520658
0.000535917
-0.000591073
0.000363861
-0.000670777
0.00012213
-0.00074957
-0.000894337
5.84547e-05
-1.44158e-05
0.000111056
-4.10714e-05
0.000156521
-6.41987e-05
0.000195426
-8.43583e-05
0.000227664
-0.000102319
0.00026006
-0.000118403
0.000293984
-0.000132809
0.000318945
-0.00014631
0.000336239
-0.000159494
0.000351328
-0.000172342
0.000363094
-0.000185002
0.000372026
-0.000197641
0.000389191
-0.000209702
0.000419081
-0.000220654
0.000449746
-0.000231185
0.000476392
-0.000242356
0.000501051
-0.000254681
0.000523414
-0.000268491
0.000539811
-0.000284876
0.000544575
-0.00030568
0.000540317
-0.000331612
0.000528758
-0.000362331
0.000502492
-0.00039826
0.000452633
-0.000440267
0.000367955
-0.000488742
0.000234913
-0.000543193
3.21051e-05
-0.000601618
-0.000247543
-0.000659474
-0.000591102
-0.000702311
-0.000997218
-1.81872e-05
-6.28333e-05
0.00014576
-0.000100451
0.000352984
-9.81483e-05
0.000549378
-8.39398e-05
0.00070388
-6.41359e-05
0.000805632
-4.38972e-05
0.000855381
-2.61337e-05
0.000857826
-1.18846e-05
0.000821448
-7.71097e-07
0.000758106
7.83678e-06
0.000678867
1.44382e-05
0.000593791
1.93333e-05
0.000509511
2.24556e-05
0.000428911
2.39603e-05
0.00035388
2.42871e-05
0.000285686
2.37942e-05
0.000225067
2.27376e-05
0.000172313
2.13015e-05
0.000127332
1.96246e-05
8.97469e-05
1.78153e-05
5.90019e-05
1.5958e-05
3.44764e-05
1.41145e-05
1.55747e-05
1.23246e-05
1.78693e-06
1.06068e-05
-7.31362e-06
8.96096e-06
-1.21374e-05
7.37238e-06
-1.31573e-05
5.81485e-06
-1.09548e-05
4.25069e-06
-6.23105e-06
2.62803e-06
9.03097e-07
0.000103382
-0.000224601
0.000283794
-0.000214046
0.000479119
-0.000193321
0.000650193
-0.000157613
0.000777373
-0.000116892
0.000855515
-7.77793e-05
0.000887635
-4.44145e-05
0.000876077
-1.82118e-05
0.00082801
2.26544e-06
0.000756536
1.83027e-05
0.00067174
3.07344e-05
0.000584074
4.01256e-05
0.000499603
4.59729e-05
0.000419377
4.85492e-05
0.00034499
4.89055e-05
0.0002776
4.7734e-05
0.000217878
4.55079e-05
0.000166059
4.25672e-05
0.000122
3.9172e-05
8.52758e-05
3.55302e-05
5.52972e-05
3.18059e-05
3.14248e-05
2.81192e-05
1.30606e-05
2.45468e-05
-2.85743e-07
2.11231e-05
-9.00437e-06
1.7845e-05
-1.34734e-05
1.46817e-05
-1.41499e-05
1.15803e-05
-1.16111e-05
8.46563e-06
-6.55793e-06
5.23442e-06
1.79894e-06
0.000397988
-0.000374192
0.000563909
-0.000305236
0.000714643
-0.00025883
0.000831185
-0.000201992
0.000906228
-0.000144333
0.000941061
-9.09447e-05
0.000938913
-4.53801e-05
0.000898672
-9.33769e-06
0.00082902
1.83229e-05
0.000744047
3.91737e-05
0.000651945
5.44675e-05
0.000562656
6.53811e-05
0.000479073
7.1999e-05
0.000399904
7.46567e-05
0.000326954
7.4434e-05
0.000261262
7.22035e-05
0.000203391
6.8568e-05
0.000153486
6.39666e-05
0.000111301
5.87497e-05
7.6316e-05
5.3209e-05
4.78774e-05
4.75789e-05
2.53099e-05
4.20317e-05
8.01212e-06
3.66752e-05
-4.46262e-06
3.15537e-05
-1.24238e-05
2.66558e-05
-1.61813e-05
2.19308e-05
-1.61624e-05
1.72981e-05
-1.29396e-05
1.26456e-05
-7.21633e-06
7.81916e-06
2.68737e-06
0.000840308
-0.000421983
0.000939992
-0.000321051
0.00101171
-0.000265086
0.00105119
-0.000200943
0.00105767
-0.000136649
0.00103532
-7.68186e-05
0.000983569
-2.44207e-05
0.000903456
1.84306e-05
0.000809317
5.0686e-05
0.000711444
7.33455e-05
0.000616234
8.80708e-05
0.000529065
9.67789e-05
0.00044724
0.00010146
0.000369952
0.000102819
0.000299417
0.000101235
0.000236442
9.74538e-05
0.00018147
9.20908e-05
0.000134537
8.56136e-05
9.52331e-05
7.84252e-05
6.28992e-05
7.08851e-05
3.67875e-05
6.32887e-05
1.61751e-05
5.58517e-05
4.54566e-07
4.87049e-05
-1.07462e-05
4.1894e-05
-1.75937e-05
3.53902e-05
-2.02876e-05
2.91169e-05
-1.9218e-05
2.29655e-05
-1.49579e-05
1.67878e-05
-8.21701e-06
1.038e-05
3.56749e-06
0.00130705
-0.000290201
0.00132096
-0.000255331
0.00130531
-0.000211848
0.00126266
-0.000155175
0.0011962
-9.41269e-05
0.00111099
-3.56916e-05
0.00100632
1.60297e-05
0.000889542
5.86659e-05
0.000775459
9.0554e-05
0.00066801
0.000112153
0.000571448
0.000125065
0.000485124
0.000131345
0.000404048
0.000133512
0.000329371
0.000132664
0.000262331
0.00012906
0.000203143
0.000123297
0.000152175
0.000115916
0.000109334
0.000107352
7.39641e-05
9.80404e-05
4.52089e-05
8.84018e-05
2.22047e-05
7.87865e-05
4.17576e-06
6.94438e-05
-9.5034e-06
6.05189e-05
-1.90893e-05
5.20479e-05
-2.45094e-05
4.39705e-05
-2.58015e-05
3.61777e-05
-2.33284e-05
2.85335e-05
-1.76793e-05
2.08564e-05
-9.57133e-06
1.28948e-05
4.43163e-06
0.00167921
-0.000143319
0.00163251
-0.000155543
0.0015453
-0.000125316
0.00142861
-7.79856e-05
0.00129409
-2.39017e-05
0.00115126
2.81939e-05
0.00100501
7.34772e-05
0.000863458
0.000109801
0.000734843
0.000136398
0.000619814
0.000153825
0.000519233
0.000163486
0.000430178
0.000167207
0.000349592
0.000166829
0.000278556
0.000163351
0.000216216
0.000157283
0.000161836
0.000149235
0.000115945
0.000139652
7.83291e-05
0.000128859
4.795e-05
0.000117303
2.36716e-05
0.000105489
4.5063e-06
9.38292e-05
-1.03667e-05
8.25957e-05
-2.16316e-05
7.19385e-05
-2.93779e-05
6.18717e-05
-3.31292e-05
5.22824e-05
-3.27017e-05
4.30209e-05
-2.84766e-05
3.39294e-05
-2.10937e-05
2.47982e-05
-1.12769e-05
1.53307e-05
5.26862e-06
0.00193591
-7.81839e-05
0.00185306
-5.64683e-05
0.00170677
-2.3971e-05
0.00152425
2.03945e-05
0.00133063
6.73234e-05
0.00114235
0.000109987
0.000967699
0.000145179
0.00081099
0.000171877
0.000674104
0.000190118
0.000555532
0.000200694
0.000452705
0.000204921
0.000362201
0.000204456
0.000283577
0.000200713
0.000218049
0.000194209
0.000161981
0.000185316
0.000113241
0.000174776
7.34213e-05
0.000162914
4.22175e-05
0.000149802
1.7885e-05
0.00013591
-1.09005e-06
0.000121882
-1.57645e-05
0.000108189
-2.69744e-05
9.51109e-05
-3.5582e-05
8.28033e-05
-4.14482e-05
7.12443e-05
-4.33859e-05
6.02328e-05
-4.09293e-05
4.95699e-05
-3.46022e-05
3.90914e-05
-2.51528e-05
2.85675e-05
-1.33074e-05
1.76595e-05
6.0687e-06
0.00211119
3.32829e-06
0.00198082
5.60189e-05
0.0017706
9.66718e-05
0.00152721
0.000138279
0.00128732
0.00017514
0.00106959
0.000204677
0.000880043
0.000226392
0.000718667
0.000240709
0.00058284
0.000248347
0.000468087
0.000250217
0.000369122
0.000247489
0.000280451
0.00024181
0.000205213
0.000234362
0.000148496
0.000224666
0.000100876
0.000212638
5.79268e-05
0.00019954
2.51286e-05
0.000185472
1.77371e-06
0.000169939
-1.54235e-05
0.000153579
-2.8357e-05
0.000137317
-3.79891e-05
0.000121652
-4.50713e-05
0.000106822
-5.09375e-05
9.29873e-05
-5.51714e-05
8.00853e-05
-5.52576e-05
6.7766e-05
-5.04219e-05
5.57741e-05
-4.16208e-05
4.39759e-05
-2.97843e-05
3.21311e-05
-1.56225e-05
1.98604e-05
6.82483e-06
0.00218648
0.000125795
0.00198368
0.000209122
0.00170571
0.000244432
0.00141463
0.000273095
0.00115
0.000293192
0.000924549
0.000305322
0.000738185
0.000310859
0.000586128
0.000311105
0.000462213
0.000307015
0.000359652
0.000299328
0.000271237
0.000288835
0.000189305
0.000277099
0.000120412
0.000265525
7.50391e-05
0.000252797
3.79337e-05
0.000237646
8.03888e-07
0.000221846
-2.64378e-05
0.000206022
-4.20945e-05
0.000188715
-5.10331e-05
0.000170042
-5.73023e-05
0.000151518
-6.14835e-05
0.000133977
-6.39227e-05
0.000117524
-6.71707e-05
0.000102344
-7.05362e-05
8.83333e-05
-6.88293e-05
7.48511e-05
-6.11182e-05
6.15922e-05
-4.94241e-05
4.85441e-05
-3.48986e-05
3.54596e-05
-1.8175e-05
2.19155e-05
7.53092e-06
0.00207379
0.00039133
0.00180176
0.000392109
0.00148024
0.000405913
0.00117462
0.000411686
0.000917607
0.000409971
0.000711084
0.000402473
0.000548045
0.000391115
0.00041979
0.000377314
0.000318244
0.000361794
0.000235852
0.00034486
0.000164014
0.000326863
9.81711e-05
0.000308929
4.34636e-05
0.000292536
7.75477e-06
0.000276592
-1.84289e-05
0.000258668
-4.73335e-05
0.000239955
-7.33091e-05
0.000222413
-8.61163e-05
0.000204437
-8.77277e-05
0.000184559
-8.69896e-05
0.000164206
-8.55362e-05
0.000144946
-8.2452e-05
0.000126985
-8.27907e-05
0.000110466
-8.70885e-05
9.55025e-05
-8.4357e-05
8.12552e-05
-7.29073e-05
6.69742e-05
-5.78486e-05
5.2749e-05
-4.03765e-05
3.85188e-05
-2.09073e-05
2.38049e-05
8.18041e-06
0.00170354
0.000576237
0.0014041
0.000552098
0.00109267
0.000549249
0.000821401
0.000534007
0.000608865
0.00051175
0.000447379
0.000486292
0.000325263
0.000459993
0.000232438
0.000434085
0.000161198
0.000408841
0.000105419
0.000383986
5.53826e-05
0.000359603
1.30268e-05
0.000336626
-2.07267e-05
0.000315865
-4.78535e-05
0.000296325
-6.3978e-05
0.000275728
-8.25894e-05
0.000254468
-0.000108487
0.000234891
-0.00012433
0.000216282
-0.000123478
0.000196252
-0.000116451
0.000175
-0.000109694
0.000154412
-0.000101315
0.000135232
-9.7377e-05
0.000117433
-0.000102179
0.000101419
-0.000100255
8.66601e-05
-8.55286e-05
7.17539e-05
-6.66339e-05
5.65326e-05
-4.60496e-05
4.12682e-05
-2.37454e-05
2.55055e-05
8.76595e-06
0.00111496
0.000633303
0.000835362
0.000672217
0.000589925
0.000659989
0.000398359
0.000627923
0.000259935
0.000588989
0.000161685
0.000549631
9.112e-05
0.000512271
3.98521e-05
0.000477636
2.68367e-06
0.000445451
-2.30067e-05
0.000414924
-4.472e-05
0.00038584
-6.219e-05
0.000359165
-7.77413e-05
0.000335243
-9.459e-05
0.000312674
-0.000102018
0.000289568
-0.000111594
0.000266158
-0.000133449
0.000244536
-0.000152663
0.000224801
-0.000155003
0.000204803
-0.000144824
0.000183535
-0.000133642
0.000162275
-0.000121827
0.000142255
-0.00011205
0.000123514
-0.000113618
0.00010648
-0.000114839
9.11569e-05
-9.90992e-05
7.587e-05
-7.54331e-05
5.98711e-05
-5.17026e-05
4.36695e-05
-2.65979e-05
2.69963e-05
9.28085e-06
0.000404697
0.000735709
0.000187236
0.00078914
5.07901e-05
0.000745269
-3.31367e-05
0.000690309
-8.42628e-05
0.000637104
-0.000114192
0.000588696
-0.000132133
0.000545166
-0.000142505
0.000505966
-0.000146993
0.000470197
-0.000144682
0.000436864
-0.000136873
0.000405472
-0.000131118
0.000376488
-0.000133554
0.000350089
-0.000140909
0.000325215
-0.000142552
0.000300443
-0.000144152
0.00027572
-0.000156813
0.000252485
-0.000173589
0.000231218
-0.000179384
0.000210636
-0.000170332
0.000189558
-0.000156659
0.000168316
-0.000142562
0.000147903
-0.0001271
0.000128571
-0.000123554
0.000110708
-0.000127804
9.46985e-05
-0.00011221
7.90939e-05
-8.36974e-05
6.26124e-05
-5.71074e-05
4.56861e-05
-2.93688e-05
2.82636e-05
9.72087e-06
-0.000354266
0.00100152
-0.000444955
0.000874742
-0.000444188
0.000784421
-0.000415888
0.000710217
-0.000385171
0.000650992
-0.000355049
0.000601184
-0.000328076
0.0005576
-0.000303974
0.000518475
-0.000281329
0.000482617
-0.000257594
0.000449153
-0.000229974
0.000417602
-0.000207276
0.000387958
-0.000197128
0.000360201
-0.000195071
0.000333872
-0.000191925
0.000308292
-0.000186611
0.000283237
-0.000188455
0.000259248
-0.000196348
0.000236698
-0.000199816
0.000215117
-0.000192366
0.000193828
-0.000178301
0.000172734
-0.000162498
0.000152271
-0.0001441
0.000132701
-0.000135479
0.000114298
-0.000136963
9.74609e-05
-0.000120999
8.13354e-05
-9.07809e-05
6.46239e-05
-6.20846e-05
4.73045e-05
-3.1977e-05
2.9304e-05
1.00846e-05
-0.00102651
0.000964075
-0.000951365
0.000756469
-0.000831133
0.00071263
-0.000718272
0.000667191
-0.000627273
0.000625274
-0.000553713
0.000586401
-0.000493787
0.000550041
-0.000443783
0.000515748
-0.000400521
0.000483125
-0.000361292
0.000451837
-0.000323489
0.000421747
-0.000291411
0.000392897
-0.000269734
0.000365303
-0.000256477
0.000338783
-0.000245829
0.000313045
-0.000234949
0.00028799
-0.000228398
0.000263853
-0.000226298
0.000240813
-0.000223023
0.000218675
-0.000213811
0.0001971
-0.000199223
0.000175998
-0.000182213
0.000155561
-0.000163446
0.000135971
-0.000150159
0.000117371
-0.000143257
9.99145e-05
-0.000125577
8.3141e-05
-9.66731e-05
6.61521e-05
-6.65972e-05
4.85815e-05
-3.43873e-05
3.01385e-05
1.0378e-05
5.76623e-05
-1.51413e-05
0.000109456
-4.31372e-05
0.000154125
-6.74214e-05
0.000192377
-8.85688e-05
0.000224713
-0.000107334
0.000256963
-0.000124142
0.000288134
-0.000139421
0.000310378
-0.000153832
0.000326482
-0.00016774
0.000340287
-0.000181232
0.000351194
-0.000194521
0.00036309
-0.000207643
0.000386095
-0.000220184
0.000415941
-0.000232101
0.000441077
-0.000244107
0.000460456
-0.000256889
0.00047422
-0.000270845
0.000481101
-0.000286316
0.000471393
-0.000303988
0.000444605
-0.000325155
0.000410173
-0.000350574
0.000364402
-0.000379934
0.000297633
-0.000412973
0.000199481
-0.000449456
5.78891e-05
-0.000488254
-0.000140769
-0.000526559
-0.000412085
-0.000558341
-0.000750958
-0.00057235
-0.00114129
-0.000547593
-0.000455185
-0.00188386
5.57214e-05
-1.58206e-05
0.000105703
-4.50696e-05
0.000148759
-7.04307e-05
0.000185728
-9.2495e-05
0.000217697
-0.000112043
0.000247751
-0.000129615
0.000274426
-0.000145695
0.000294196
-0.000160803
0.000309132
-0.000175275
0.000321417
-0.000189268
0.000331897
-0.000202933
0.000345729
-0.000216307
0.000366881
-0.000229298
0.000388642
-0.000242042
0.000404448
-0.000254995
0.000413166
-0.000268633
0.000413289
-0.00028333
0.000401837
-0.000299425
0.000369697
-0.000317327
0.000319868
-0.000337656
0.000260633
-0.000360801
0.000185796
-0.000386389
8.65754e-05
-0.000413605
-4.60238e-05
-0.000441213
-0.00022098
-0.000466953
-0.000447024
-0.000486821
-0.000728069
-0.000494125
-0.00105098
-0.000478967
-0.00139525
-0.000428616
-0.00033247
-0.00170543
5.34385e-05
-1.64442e-05
0.000101317
-4.68422e-05
0.000142503
-7.31876e-05
0.000177857
-9.60887e-05
0.000208407
-0.000116361
0.000235624
-0.000134608
0.000258742
-0.000151339
0.000276221
-0.000167012
0.000289187
-0.000181941
0.000299285
-0.000196314
0.000307979
-0.000210267
0.000318583
-0.000223872
0.000331428
-0.000237164
0.000341881
-0.000250306
0.000346306
-0.000263613
0.000342615
-0.000277429
0.000328541
-0.000292053
0.000300703
-0.000307733
0.000253797
-0.000324693
0.000189835
-0.000343107
0.000112245
-0.000362873
1.62109e-05
-0.000383351
-0.000104418
-0.000403397
-0.000255518
-0.000421246
-0.000441668
-0.000434166
-0.000665971
-0.000438081
-0.000923528
-0.000427525
-0.00119621
-0.000396134
-0.00145834
-0.000337257
-0.000248262
-0.00165456
5.08028e-05
-1.70049e-05
9.62641e-05
-4.84355e-05
0.000135288
-7.56625e-05
0.000168667
-9.93091e-05
0.000197229
-0.00012022
0.000221715
-0.00013904
0.000241706
-0.000156288
0.000256511
-0.000172394
0.000266793
-0.000187665
0.000273785
-0.000202295
0.000278738
-0.000216416
0.000283112
-0.000230121
0.000286513
-0.000243495
0.000286105
-0.000256684
0.000279113
-0.000269904
0.000263395
-0.000283381
0.000236643
-0.000297318
0.000195892
-0.000311848
0.00013829
-0.000326978
6.40061e-05
-0.000342562
-2.64448e-05
-0.000358189
-0.000135706
-0.000373007
-0.000267481
-0.000385678
-0.000424702
-0.000394297
-0.000608379
-0.000396225
-0.000816889
-0.000388169
-0.00104073
-0.000366605
-0.00126204
-0.000328062
-0.00145984
-0.000269232
-0.000191457
-0.00159447
4.77987e-05
-1.74962e-05
9.05109e-05
-4.98306e-05
0.000127062
-7.78263e-05
0.00015814
-0.000102116
0.000184379
-0.000123566
0.000206168
-0.000142843
0.000223217
-0.000160476
0.000235072
-0.000176886
0.00024207
-0.000192377
0.00024516
-0.000207136
0.00024531
-0.000221289
0.000243095
-0.000234932
0.000237831
-0.00024816
0.000227514
-0.000261083
0.000210026
-0.000273828
0.000183661
-0.000286504
0.000146524
-0.000299237
9.57269e-05
-0.000312073
2.91229e-05
-0.000324819
-5.3409e-05
-0.000337089
-0.000152135
-0.000348287
-0.000268475
-0.000357468
-0.000404139
-0.000363267
-0.000559669
-0.000363971
-0.00073311
-0.000357545
-0.000919415
-0.000341776
-0.00110859
-0.000314568
-0.0012869
-0.000274102
-0.0014393
-0.00021916
-0.000152941
-0.00153924
4.44125e-05
-1.79119e-05
8.40314e-05
-5.10101e-05
0.000117799
-7.96512e-05
0.000146286
-0.000104471
0.000169982
-0.000126348
0.000189103
-0.000145961
0.000203351
-0.000163844
0.000212115
-0.000180426
0.000215341
-0.000196012
0.000213886
-0.000210776
0.000208646
-0.00022482
0.00019979
-0.000238232
0.000186504
-0.000251098
0.000167158
-0.000263492
0.000140065
-0.000275455
0.000104426
-0.000286938
5.95316e-05
-0.00029805
1.49483e-06
-0.000308869
-7.22242e-05
-0.000318967
-0.000160805
-0.000327757
-0.000264416
-0.000334595
-0.000383486
-0.000338575
-0.000517833
-0.000338554
-0.000665966
-0.0003332
-0.000824331
-0.000321116
-0.000987099
-0.000300911
-0.00114602
-0.000271418
-0.0012911
-0.000231938
-0.00141181
-0.000182538
-0.000126935
-0.0014904
4.06325e-05
-1.82462e-05
7.6807e-05
-5.19582e-05
0.000107483
-8.11129e-05
0.000133117
-0.000106342
0.000154106
-0.000128527
0.000170624
-0.000148347
0.000182335
-0.000166337
0.00018808
-0.000182951
0.000187115
-0.000198517
0.000180536
-0.000213172
0.000169591
-0.000226972
0.000154271
-0.000239991
0.000133675
-0.000252305
0.000106207
-0.000263968
6.99928e-05
-0.000274978
2.7056e-05
-0.00028517
-2.20045e-05
-0.000294485
-8.54936e-05
-0.000302962
-0.000165526
-0.000310203
-0.000258357
-0.000315576
-0.000363969
-0.000318454
-0.000481834
-0.000318073
-0.000610603
-0.000313558
-0.000747817
-0.000303959
-0.000889695
-0.000288339
-0.00103099
-0.000265919
-0.00116512
-0.000236219
-0.00128477
-0.00019923
-0.00138281
-0.000155617
-0.00010886
-0.00144686
3.64474e-05
-1.84947e-05
6.88237e-05
-5.26617e-05
9.61064e-05
-8.21911e-05
0.000118627
-0.000107703
0.000136753
-0.000130075
0.000150764
-0.00014997
0.000160531
-0.000167909
0.000163763
-0.000184401
0.000158128
-0.000199844
0.000145684
-0.000214304
0.000128874
-0.000227745
0.000107488
-0.000240219
8.04643e-05
-0.000251808
4.61069e-05
-0.000262562
2.47986e-06
-0.00027246
-4.54256e-05
-0.000281376
-9.78804e-05
-0.000288966
-0.000166734
-0.000294973
-0.000251393
-0.000299318
-0.000345982
-0.000301581
-0.000450519
-0.000301129
-0.000564006
-0.000297342
-0.000684697
-0.000289558
-0.000809974
-0.000277141
-0.000936225
-0.000259555
-0.00105895
-0.000236455
-0.00117301
-0.000207795
-0.00127314
-0.000173928
-0.00135454
-0.000135707
-9.61149e-05
-0.00140804
3.19073e-05
-1.86735e-05
6.0248e-05
-5.31665e-05
8.39766e-05
-8.296e-05
0.000103258
-0.000108663
0.000118451
-0.000131138
0.000130126
-0.000151024
0.000139376
-0.000168767
0.000141143
-0.000184897
0.000129351
-0.000200006
0.000109599
-0.000214168
8.69229e-05
-0.000227152
5.99753e-05
-0.000238959
2.73896e-05
-0.000249687
-1.23723e-05
-0.00025937
-6.02675e-05
-0.000267964
-0.000112498
-0.00027536
-0.000171212
-0.000281189
-0.000244315
-0.000285079
-0.000329625
-0.000286985
-0.000423123
-0.000286649
-0.000524217
-0.000283549
-0.000631635
-0.000277208
-0.000743431
-0.000267179
-0.000857004
-0.000253086
-0.000969131
-0.000234684
-0.00107611
-0.000211917
-0.00117402
-0.000184983
-0.0012591
-0.000154385
-0.00132812
-0.00012096
-8.71672e-05
-0.00137396
2.73332e-05
-1.87646e-05
5.16266e-05
-5.3428e-05
7.17878e-05
-8.33633e-05
8.78038e-05
-0.000109162
9.99612e-05
-0.00013167
0.000108955
-0.000151508
0.000116816
-0.000169087
0.00011594
-0.000184849
9.78622e-05
-0.000199393
7.15983e-05
-0.000212935
4.37518e-05
-0.000225253
1.18751e-05
-0.000236273
-2.54977e-05
-0.000246056
-6.94718e-05
-0.000254597
-0.000120275
-0.000261829
-0.000176868
-0.00026761
-0.000241196
-0.000271683
-0.000315854
-0.000273797
-0.000399395
-0.000273778
-0.000490009
-0.000271382
-0.000586392
-0.000266277
-0.000686979
-0.000258144
-0.000789788
-0.000246719
-0.000892412
-0.000231826
-0.000992093
-0.000213419
-0.00108587
-0.000191617
-0.0011708
-0.00016674
-0.00124421
-0.000139321
-0.00130394
-0.000110105
-8.1114e-05
-0.0013443
2.2897e-05
-1.87178e-05
4.30567e-05
-5.33019e-05