/*--------------------------------*- C++ -*----------------------------------*\
| =========                 |                                                 |
| \\      /  F ield         | OpenFOAM: The Open Source CFD Toolbox           |
|  \\    /   O peration     | Version:  4.1                                   |
|   \\  /    A nd           | Web:      www.OpenFOAM.org                      |
|    \\/     M anipulation  |                                                 |
\*---------------------------------------------------------------------------*/
FoamFile
{
    version     2.0;
    format      ascii;
    class       volVectorField;
    location    "5";
    object      U;
}
// * * * * * * * * * * * * * * * * * * * * * * * * * * * * * * * * * * * * * //

dimensions      [0 1 -1 0 0 0 0];

internalField   nonuniform List<vector> 
2790
(
(9.93372 0.0200826 -1.06871e-19)
(9.86639 0.027582 0)
(9.76968 0.0325922 -5.60492e-20)
(9.65019 0.0378924 -5.76756e-20)
(9.51496 0.0434577 5.96449e-20)
(9.36567 0.0492201 -6.12199e-20)
(9.20168 0.0553015 6.37408e-20)
(9.02212 0.061848 -6.54807e-20)
(8.8263 0.0689845 -1.37079e-19)
(8.61348 0.0768281 1.41012e-19)
(8.3827 0.0855018 -7.37271e-20)
(8.13284 0.0951331 7.68865e-20)
(7.86266 0.105855 8.03429e-20)
(7.57079 0.117809 -8.4135e-20)
(7.25581 0.131143 -8.83079e-20)
(6.91623 0.146003 -9.29136e-20)
(6.55061 0.162535 -1.96031e-19)
(6.15755 0.180868 0)
(5.73579 0.201082 0)
(5.28435 0.223201 -7.10155e-19)
(4.80274 0.247162 9.94358e-19)
(4.29107 0.272756 0)
(3.7503 0.299603 -2.32415e-18)
(3.1826 0.327104 4.99059e-18)
(2.59144 0.354236 -2.35499e-18)
(1.98218 0.379312 2.95519e-18)
(1.36152 0.400093 -3.20344e-18)
(0.758701 0.41124 0)
(0.0378247 0.191902 -3.80836e-18)
(-0.0744056 -0.417808 4.18498e-18)
(9.99511 0.0386128 1.0668e-19)
(9.98513 0.0562008 1.08502e-19)
(9.94825 0.0691628 1.10935e-19)
(9.88685 0.0831406 1.13803e-19)
(9.80679 0.0981473 -1.17329e-19)
(9.70998 0.113984 2.403e-19)
(9.59607 0.130892 -2.48982e-19)
(9.46435 0.149198 3.84003e-19)
(9.31425 0.169197 -5.28901e-19)
(9.14508 0.191164 2.72253e-19)
(8.95597 0.215387 2.12614e-19)
(8.74589 0.242158 5.19022e-19)
(8.51363 0.271773 -8.38441e-19)
(8.25785 0.304539 7.22654e-19)
(7.97713 0.340753 -7.45151e-19)
(7.66993 0.380679 1.49238e-18)
(7.33469 0.424533 -9.04111e-19)
(6.9699 0.472444 3.83693e-19)
(6.57406 0.52436 -1.2276e-18)
(6.14589 0.58 -1.96242e-18)
(5.68447 0.638756 3.59939e-18)
(5.18941 0.699537 -3.87661e-18)
(4.66093 0.760651 4.0781e-18)
(4.10054 0.819707 0)
(3.51111 0.873102 2.92809e-19)
(2.89746 0.915114 0)
(2.26766 0.936119 1.09514e-17)
(1.63778 0.916085 -2.43149e-17)
(0.979217 0.776139 1.28747e-17)
(0.587654 0.422463 9.48713e-19)
(9.99218 0.0387454 0)
(9.9794 0.0647869 1.28135e-23)
(9.94467 0.086861 -3.32461e-19)
(9.88788 0.110134 1.13315e-19)
(9.81361 0.135056 -2.32752e-19)
(9.7239 0.161533 -1.19697e-19)
(9.6187 0.189885 -2.46017e-19)
(9.49746 0.220586 3.80294e-19)
(9.35973 0.254106 0)
(9.20492 0.2909 2.73422e-19)
(9.03234 0.331437 -6.95848e-19)
(8.84114 0.376205 0)
(8.63029 0.425708 1.50244e-19)
(8.39864 0.48048 -3.11375e-19)
(8.14494 0.541058 1.46927e-18)
(7.86775 0.607935 -1.68029e-18)
(7.56552 0.68153 -3.19651e-18)
(7.23672 0.762139 -4.42845e-20)
(6.8797 0.84981 -4.31787e-19)
(6.49278 0.944235 3.62464e-18)
(6.07448 1.0446 4.25055e-19)
(5.62341 1.14931 -7.23546e-18)
(5.13835 1.25575 8.01914e-18)
(4.6188 1.36008 0)
(4.0651 1.45662 -5.35282e-19)
(3.47779 1.53639 0)
(2.85686 1.58522 9.77581e-18)
(2.2017 1.57943 -3.08414e-17)
(1.45968 1.47699 6.2416e-19)
(0.826663 1.22179 5.29572e-17)
(9.9904 0.0427516 5.31431e-20)
(9.9753 0.0786239 1.62038e-19)
(9.94038 0.110903 0)
(9.88475 0.143631 2.25969e-19)
(9.81195 0.177961 2.31967e-19)
(9.72404 0.214181 0)
(9.62127 0.25276 4.89117e-19)
(9.50324 0.294338 -7.57451e-19)
(9.36957 0.339582 5.16332e-19)
(9.21983 0.389122 2.67671e-19)
(9.05357 0.443584 0)
(8.87019 0.50363 -2.85043e-19)
(8.66896 0.569966 -1.48451e-18)
(8.44905 0.643343 1.52393e-18)
(8.20954 0.724536 -2.55916e-18)
(7.94939 0.814304 3.28247e-18)
(7.66737 0.913324 2.7655e-18)
(7.36225 1.02213 -3.17947e-19)
(7.03266 1.14102 3.04417e-18)
(6.67693 1.26988 -6.57214e-18)
(6.29351 1.40809 -4.07957e-19)
(5.88038 1.55407 8.48309e-19)
(5.43507 1.70495 -4.48258e-19)
(4.95507 1.85636 7.55249e-18)
(4.43753 2.00194 -7.8791e-18)
(3.87804 2.13218 0)
(3.26872 2.23346 0)
(2.59952 2.28707 2.02798e-17)
(1.81255 2.27493 -5.5788e-19)
(1.04173 2.1777 -2.29746e-17)
(9.98946 0.0481921 1.06071e-19)
(9.97304 0.0922129 -4.31653e-19)
(9.9379 0.133251 5.50035e-19)
(9.88322 0.174495 -2.25362e-19)
(9.81186 0.217541 2.3046e-19)
(9.72578 0.262991 2.36328e-19)
(9.62535 0.311437 -4.85724e-19)
(9.5101 0.363647 2.49338e-19)
(9.37972 0.42041 2.5651e-19)
(9.23395 0.482457 -2.6416e-19)
(9.07246 0.550515 0)
(8.89479 0.625364 -2.26451e-18)
(8.70037 0.707852 2.60474e-18)
(8.48859 0.798876 -2.42156e-18)
(8.2588 0.899371 2.47489e-18)
(8.01026 1.0103 -3.23263e-19)
(7.74215 1.13256 0)
(7.45354 1.26692 -5.59113e-18)
(7.14334 1.41392 6.4477e-18)
(6.81011 1.57376 -7.46328e-19)
(6.45248 1.7462 0)
(6.06829 1.9301 -8.15759e-19)
(5.65434 2.12295 0)
(5.20672 2.32077 0)
(4.72016 2.51793 0)
(4.18694 2.70647 -1.65796e-17)
(3.59531 2.87604 1.63517e-17)
(2.93281 3.01409 -1.44871e-20)
(2.15145 3.11096 0)
(1.28024 3.18275 -1.309e-18)
(9.98893 0.05433 1.0581e-19)
(9.97201 0.105861 1.07646e-19)
(9.93694 0.155269 -2.20048e-19)
(9.88328 0.20504 0)
(9.81369 0.256835 -2.29638e-19)
(9.72992 0.311451 -7.06941e-19)
(9.63225 0.369635 7.21992e-19)
(9.52016 0.432269 -7.47642e-19)
(9.39348 0.500213 7.58471e-19)
(9.25209 0.574285 -2.60247e-19)
(9.09571 0.655328 0)
(8.92392 0.744246 2.77926e-19)
(8.73629 0.842015 -5.70717e-19)
(8.53234 0.949658 5.8878e-19)
(8.31155 1.06824 1.84633e-18)
(8.07335 1.19886 2.56808e-18)
(7.81729 1.34265 -1.04241e-17)
(7.54262 1.50061 4.68627e-18)
(7.24833 1.67355 -7.00237e-19)
(6.93332 1.86202 7.25414e-19)
(6.59614 2.06621 -1.27902e-17)
(6.23487 2.28573 1.15725e-17)
(5.84629 2.51889 0)
(5.42568 2.76272 -1.3437e-17)
(4.96664 3.01315 1.2985e-17)
(4.4601 3.2645 9.12098e-19)
(3.89333 3.5097 -2.94423e-17)
(3.25343 3.7407 3.07633e-17)
(2.51894 3.94091 -3.34601e-17)
(1.56126 4.18384 1.78349e-18)
(9.98869 0.060781 4.21622e-19)
(9.97171 0.119501 -4.28193e-19)
(9.93706 0.176884 -4.37381e-19)
(9.88463 0.234871 -4.4563e-19)
(9.81716 0.295061 9.1297e-19)
(9.73611 0.358466 4.71035e-19)
(9.64151 0.426012 -9.53783e-19)
(9.53303 0.498665 -1.9657e-18)
(9.41071 0.577337 1.00268e-18)
(9.27438 0.662939 2.59534e-18)
(9.12379 0.756434 -2.11507e-18)
(8.95861 0.858839 0)
(8.77848 0.971233 2.26479e-18)
(8.58302 1.09475 -2.8837e-18)
(8.37181 1.23056 5.9825e-19)
(8.14433 1.37988 0)
(7.90034 1.54402 0)
(7.63924 1.72427 5.91789e-18)
(7.36003 1.92171 -1.07894e-17)
(7.06189 2.13725 5.53341e-18)
(6.74325 2.37153 -1.08243e-17)
(6.40242 2.62501 1.25347e-17)
(6.03644 2.89723 -1.51786e-18)
(5.64047 3.18653 0)
(5.20808 3.49057 -7.94701e-19)
(4.73023 3.8059 2.70634e-17)
(4.19491 4.12764 -5.68052e-17)
(3.58636 4.45158 2.90346e-17)
(2.93095 4.73913 0)
(1.8896 5.14589 -1.0451e-18)
(9.9887 0.0673254 -4.21226e-19)
(9.97181 0.133005 -2.12646e-19)
(9.93794 0.197972 1.08741e-18)
(9.88714 0.263806 4.44311e-19)
(9.82208 0.332048 -1.36114e-18)
(9.74401 0.403932 -9.30321e-19)
(9.65285 0.48051 9.45953e-19)
(9.54855 0.562774 4.86563e-19)
(9.43119 0.651709 4.96783e-19)
(9.30055 0.748336 -2.05126e-18)
(9.15645 0.85372 3.6686e-18)
(8.99865 0.968973 -1.60434e-18)
(8.82685 1.09527 2.77447e-18)
(8.64079 1.23384 -1.69223e-18)
(8.44011 1.38601 -4.69094e-18)
(8.22437 1.55309 4.76851e-18)
(7.99317 1.73654 4.34362e-18)
(7.74615 1.93796 -5.03941e-18)
(7.48261 2.15874 0)
(7.20165 2.40013 1.07609e-17)
(6.9018 2.66332 -1.25876e-18)
(6.58156 2.94959 1.00322e-19)
(6.23808 3.25974 -1.15294e-17)
(5.86682 3.59359 0)
(5.4621 3.95051 1.54293e-18)
(5.01565 4.32887 0)
(4.51743 4.72457 -2.57388e-17)
(3.94327 5.13816 5.44893e-17)
(3.38792 5.49453 -5.59562e-17)
(2.26261 6.05116 2.94792e-17)
(9.98883 0.0738308 1.04814e-19)
(9.97222 0.146251 -5.29975e-19)
(9.93946 0.218405 -5.37072e-24)
(9.89065 0.291708 -1.32489e-18)
(9.82821 0.367673 9.00646e-19)
(9.75333 0.447689 1.84279e-18)
(9.66609 0.532887 -9.37861e-19)
(9.56652 0.624291 0)
(9.45462 0.722976 1.48339e-18)
(9.33025 0.830068 -4.03203e-18)
(9.19331 0.946714 3.08794e-18)
(9.04363 1.07411 -3.08605e-21)
(8.881 1.21352 4.35786e-18)
(8.70524 1.36629 -4.98063e-18)
(8.51605 1.53387 0)
(8.31309 1.71777 0)
(8.0958 1.91953 -5.8937e-19)
(7.86408 2.14097 3.70965e-18)
(7.61752 2.38389 5.09491e-18)
(7.35504 2.64999 -2.0563e-17)
(7.07535 2.94098 1.17968e-17)
(6.77714 3.25896 -1.33217e-18)
(6.45788 3.60597 2.51884e-20)
(6.11334 3.98321 2.2434e-17)
(5.73858 4.39161 -4.56307e-17)
(5.32651 4.83123 4.31238e-21)
(4.87008 5.29723 8.90742e-20)
(4.32969 5.79652 2.25262e-17)
(3.88262 6.20674 2.57091e-17)
(2.67181 6.88649 -5.22135e-17)
(9.98899 0.0802041 8.34259e-19)
(9.97293 0.159118 2.3917e-21)
(9.94156 0.238064 -4.30071e-19)
(9.89496 0.318454 0)
(9.83535 0.401799 0)
(9.76397 0.48955 4.58139e-19)
(9.68109 0.582896 -1.39461e-18)
(9.58667 0.682934 1.91053e-18)
(9.4807 0.790826 -2.42427e-18)
(9.36315 0.907773 1.99692e-18)
(9.23398 1.03499 -2.53533e-18)
(9.09312 1.17376 -2.0923e-18)
(8.94049 1.32542 -2.68565e-18)
(8.77587 1.49146 4.33044e-18)
(8.59904 1.67347 5.53436e-19)
(8.40984 1.87312 0)
(8.20783 2.09205 6.98754e-18)
(7.99296 2.33227 -1.30547e-17)
(7.76487 2.59599 -7.992e-20)
(7.52275 2.88548 9.82308e-18)
(7.26546 3.20303 1.24421e-18)
(6.99139 3.55135 1.28697e-18)
(6.6989 3.93379 2.6634e-20)
(6.38441 4.35309 0)
(6.04309 4.81138 2.25069e-17)
(5.66851 5.3103 -8.50416e-20)
(5.25761 5.84357 -2.16267e-17)
(4.74826 6.42673 -2.14815e-17)
(4.4012 6.88834 2.1426e-17)
(3.10527 7.66681 0)
(9.98922 0.0863655 -7.29306e-19)
(9.9739 0.171501 7.38832e-19)
(9.94412 0.256858 1.28456e-18)
(9.89987 0.343944 0)
(9.84333 0.434284 4.43373e-19)
(9.77583 0.529331 0)
(9.69764 0.63033 -9.2409e-19)
(9.60872 0.738469 9.39285e-19)
(9.50912 0.85498 -9.67995e-19)
(9.3989 0.981122 4.41339e-18)
(9.27809 1.11817 -2.49405e-18)
(9.14671 1.26746 -5.12635e-19)
(9.00477 1.43047 3.99026e-21)
(8.85206 1.60879 -4.80311e-18)
(8.68846 1.80413 4.85608e-18)
(8.5141 2.01824 -1.09968e-18)
(8.32873 2.253 3.38915e-18)
(8.13215 2.5106 -1.37612e-17)
(7.9241 2.79356 1.04335e-17)
(7.70431 3.10478 9.47288e-18)
(7.47194 3.44728 -1.07492e-17)
(7.22505 3.82427 9.68053e-18)
(6.96256 4.24019 1.09932e-17)
(6.68201 4.69961 -2.08156e-17)
(6.37879 5.20606 -2.08332e-17)
(6.04567 5.76274 1.84946e-17)
(5.68409 6.36257 0)
(5.20445 7.03238 0)
(4.94086 7.56067 1.97039e-17)
(3.55934 8.43894 -2.06905e-17)
(9.98947 0.0922503 0)
(9.97507 0.183316 -2.09793e-19)
(9.94704 0.274711 -6.40572e-19)
(9.9053 0.368089 0)
(9.85208 0.464993 -4.41787e-19)
(9.78874 0.566862 1.34811e-18)
(9.71553 0.675004 4.62836e-19)
(9.63246 0.790681 -9.2936e-19)
(9.53964 0.915178 -4.75951e-19)
(9.43721 1.0498 -2.42653e-18)
(9.32527 1.19588 2.459e-18)
(9.20397 1.35482 0)
(9.07327 1.52821 -3.59142e-18)
(8.93309 1.71774 5.70415e-18)
(8.78364 1.92515 3.18469e-18)
(8.62516 2.15231 -3.20427e-18)
(8.45754 2.40133 0)
(8.28064 2.67466 1.09816e-18)
(8.09448 2.97509 -1.73078e-20)
(7.89888 3.3059 1.12011e-18)
(7.69364 3.67096 0)
(7.47749 4.07438 0)
(7.24909 4.52127 1.82801e-17)
(7.00709 5.01798 -3.42053e-17)
(6.7478 5.57018 1.81858e-17)
(6.46226 6.18353 4.36673e-20)
(6.15627 6.85234 1.73841e-17)
(5.71201 7.61712 -1.7435e-17)
(5.5208 8.24444 1.66711e-17)
(4.05455 9.26941 -1.02764e-18)
(9.98965 0.0978196 1.0295e-18)
(9.97639 0.194487 1.04187e-18)
(9.95027 0.291551 4.99735e-22)
(9.91119 0.390801 4.32063e-19)
(9.8615 0.493802 -6.43335e-22)
(9.80256 0.602001 -4.4614e-19)
(9.7346 0.716755 9.08022e-19)
(9.65769 0.839373 9.288e-19)
(9.572 0.971185 -1.87034e-18)
(9.47774 1.11354 4.75363e-19)
(9.37514 1.26781 0)
(9.26436 1.43549 0)
(9.14537 1.61824 4.02118e-18)
(9.01835 1.81777 -9.16001e-18)
(8.88391 2.03587 8.25424e-18)
(8.74215 2.27453 -3.12964e-18)
(8.59312 2.53607 0)
(8.43719 2.82319 -9.63399e-18)
(8.27467 3.13896 8.57114e-18)
(8.10531 3.48687 -9.74266e-18)
(7.9295 3.87142 8.65746e-18)
(7.74726 4.29783 8.62694e-18)
(7.55751 4.77202 7.44629e-18)
(7.35963 5.30181 -1.81009e-17)
(7.15152 5.89574 1.02111e-18)
(6.92312 6.56363 1.70561e-17)
(6.68441 7.30474 -1.59209e-17)
(6.29434 8.17603 9.09035e-19)
(6.18086 8.95091 -1.4642e-17)
(4.63359 10.2246 1.0625e-18)
(9.98981 0.103049 2.02215e-19)
(9.97783 0.204947 -2.10678e-19)
(9.95374 0.307305 4.21461e-19)
(9.91749 0.411989 4.2615e-19)
(9.87152 0.520603 -8.70569e-19)
(9.81716 0.634617 -8.80593e-19)
(9.75469 0.755425 0)
(9.6842 0.884362 2.28172e-18)
(9.60592 1.02279 -1.38599e-18)
(9.52015 1.17209 -3.16729e-21)
(9.42725 1.33369 -4.75578e-19)
(9.32731 1.50915 0)
(9.22046 1.70018 0)
(9.10725 1.9084 9.895e-19)
(8.98841 2.13568 0)
(8.86404 2.38418 -1.02248e-18)
(8.73448 2.65634 0)
(8.60051 2.95497 0)
(8.46281 3.2834 -1.03424e-17)
(8.3217 3.64546 1.65335e-17)
(8.17782 4.04586 -1.64634e-17)
(8.0324 4.49058 9.18885e-18)
(7.88571 4.98662 -6.97669e-18)
(7.73797 5.54307 7.9157e-18)
(7.5896 6.1715 -1.60399e-17)
(7.43176 6.88706 1.48346e-17)
(7.27972 7.69844 -1.35405e-17)
(6.98247 8.68188 -9.6608e-20)
(6.98442 9.66453 1.31033e-17)
(5.37424 11.4101 0)
(9.99001 0.107915 -8.18381e-19)
(9.97933 0.214659 -8.27327e-19)
(9.95738 0.321912 1.25431e-18)
(9.92412 0.431581 -1.27553e-18)
(9.88201 0.545312 0)
(9.8324 0.664614 1.75e-18)
(9.7756 0.790899 0)
(9.71174 0.925511 -2.25851e-18)
(9.6411 1.06983 2.28793e-18)
(9.56408 1.22528 -2.31557e-18)
(9.48111 1.39333 2.3557e-18)
(9.39222 1.57558 -1.8986e-18)
(9.29797 1.7737 -9.57977e-19)
(9.19915 1.98926 -1.02334e-20)
(9.09616 2.22416 -4.9081e-18)
(8.98957 2.48074 7.90482e-18)
(8.8803 2.7615 -3.96698e-18)
(8.7691 3.06918 -9.87251e-19)
(8.65705 3.40723 -6.94579e-18)
(8.54547 3.77978 6.94355e-18)
(8.43563 4.19162 0)
(8.32966 4.64895 -2.52047e-20)
(8.22961 5.15948 0)
(8.1377 5.73332 0)
(8.05762 6.38383 0)
(7.98574 7.13069 4.02478e-19)
(7.947 7.99407 0)
(7.80607 9.06539 -1.0507e-17)
(8.02593 10.2846 1.58579e-18)
(6.37864 13.1329 9.56138e-18)
(0.0889852 -0.086342 -1.02532e-19)
(0.265444 -0.100969 9.48488e-20)
(0.460668 -0.0874691 -8.53695e-20)
(0.639718 -0.0693274 0)
(0.790707 -0.052338 0)
(0.911704 -0.0375548 0)
(1.00398 -0.0245575 -2.99194e-21)
(1.06882 -0.012641 0)
(1.10668 -0.00157696 -2.50905e-20)
(1.11874 0.0077223 1.99842e-20)
(1.10931 0.0137343 -1.42154e-20)
(1.0831 0.0174324 2.84144e-20)
(1.04646 0.0189292 5.65174e-23)
(1.00567 0.0183792 -9.50339e-21)
(0.966061 0.0160709 -2.39286e-21)
(0.931969 0.0124811 -2.37511e-21)
(0.906474 0.0082494 2.32649e-21)
(0.891538 0.00394885 6.6203e-21)
(0.888507 -0.000921681 -4.33289e-21)
(0.899415 -0.00547779 0)
(0.920815 -0.00893564 -3.50791e-21)
(0.94991 -0.0112968 9.29775e-22)
(0.983733 -0.0126241 4.45182e-23)
(1.01972 -0.0128845 0)
(1.05585 -0.0121288 0)
(1.09029 -0.0105976 3.88114e-22)
(1.12157 -0.008718 0)
(1.14891 -0.00696892 0)
(1.17264 -0.00571157 0)
(1.20008 -0.00554777 0)
(0.065094 -0.225168 3.7617e-21)
(0.240987 -0.254955 -2.83244e-21)
(0.431155 -0.223452 1.52402e-19)
(0.607321 -0.183299 -1.04732e-20)
(0.761589 -0.146062 -1.21038e-19)
(0.892393 -0.113789 -9.45311e-20)
(1.00088 -0.0853654 1.09984e-20)
(1.08837 -0.0589606 8.98471e-20)
(1.15539 -0.0335131 5.06558e-21)
(1.20218 -0.00933455 0)
(1.22713 0.011224 3.2746e-20)
(1.23185 0.025246 -3.7278e-20)
(1.22313 0.0331233 -3.75279e-20)
(1.20787 0.0353251 2.32313e-20)
(1.19193 0.0326459 2.10895e-20)
(1.17987 0.0262032 -1.61914e-20)
(1.17479 0.0171314 1.61044e-20)
(1.17811 0.00629119 -1.52344e-20)
(1.18976 -0.00486074 8.50466e-21)
(1.20744 -0.0150501 7.42579e-21)
(1.23062 -0.0230183 -5.57072e-21)
(1.25772 -0.0284316 -1.57131e-21)
(1.28677 -0.0315853 2.04752e-21)
(1.31645 -0.0328843 2.22097e-21)
(1.3464 -0.0325371 -1.90761e-21)
(1.37642 -0.0307182 4.69052e-22)
(1.40583 -0.0278361 0)
(1.43364 -0.0245653 1.57632e-22)
(1.45911 -0.0216772 -1.55589e-22)
(1.48701 -0.0196303 -1.57416e-22)
(0.0298162 -0.375686 -3.60515e-19)
(0.18551 -0.407163 1.34615e-20)
(0.355553 -0.356487 5.87451e-19)
(0.508692 -0.296063 -2.69064e-19)
(0.64395 -0.240521 -3.65648e-21)
(0.760262 -0.192697 -6.51041e-21)
(0.85868 -0.150742 1.78366e-19)
(0.940198 -0.111848 -1.66429e-19)
(1.00531 -0.0745391 -8.82119e-20)
(1.05484 -0.0388304 7.82612e-20)
(1.0905 -0.00633444 -9.35322e-21)
(1.11024 0.0176786 0)
(1.1177 0.0321544 -3.80637e-20)
(1.11898 0.0372834 3.30482e-20)
(1.11878 0.0344198 0)
(1.12034 0.0254217 1.89001e-20)
(1.12547 0.0123318 -3.71493e-20)
(1.13533 -0.00287981 5.07461e-21)
(1.14717 -0.0174069 1.73588e-20)
(1.16103 -0.0299982 0)
(1.1767 -0.0395893 -3.5938e-21)
(1.19305 -0.0456269 7.53956e-21)
(1.20859 -0.048603 -7.25697e-21)
(1.22232 -0.0494779 -1.16545e-21)
(1.23446 -0.0488252 1.71873e-21)
(1.24581 -0.0467606 -1.69769e-21)
(1.25669 -0.0433962 1.59352e-21)
(1.26687 -0.0391923 -1.63447e-22)
(1.27609 -0.034915 -3.05556e-22)
(1.28688 -0.0305264 1.5976e-22)
(-0.00409588 -0.512348 -2.72378e-21)
(0.124912 -0.531457 -3.01985e-19)
(0.274102 -0.461484 2.8294e-19)
(0.399856 -0.384022 0)
(0.511495 -0.314313 2.11099e-19)
(0.607266 -0.255137 -2.06876e-19)
(0.688541 -0.203304 1.10886e-20)
(0.756362 -0.154896 1.5304e-19)
(0.81175 -0.108302 -1.53427e-19)
(0.854943 -0.0637478 0)
(0.887281 -0.0233109 -6.70102e-20)
(0.90909 0.00859901 6.67266e-20)
(0.91987 0.0271408 8.81278e-20)
(0.925935 0.0336639 -3.8117e-20)
(0.931235 0.0303412 -7.89675e-20)
(0.937353 0.0197244 4.93146e-20)
(0.944645 0.00490274 0)
(0.952033 -0.0105543 1.8259e-20)
(0.956788 -0.02502 -1.80105e-20)
(0.958093 -0.0375213 8.23144e-21)
(0.956692 -0.0464377 3.66582e-21)
(0.952984 -0.0507705 6.1444e-21)
(0.946579 -0.0512106 -8.18092e-22)
(0.937332 -0.049311 -5.19657e-21)
(0.926335 -0.0463354 1.94542e-21)
(0.91532 -0.0427703 0)
(0.905288 -0.038685 -2.49317e-23)
(0.896774 -0.0343783 -7.65212e-22)
(0.889803 -0.0306896 0)
(0.884843 -0.027959 0)
(-0.0360553 -0.630189 6.222e-19)
(0.060907 -0.628314 -5.82555e-19)
(0.189723 -0.540583 4.99788e-19)
(0.284205 -0.449188 -4.8228e-19)
(0.368872 -0.369022 0)
(0.438469 -0.302058 0)
(0.495743 -0.243541 -1.13703e-20)
(0.542259 -0.189008 1.63452e-19)
(0.582106 -0.136914 -1.43852e-19)
(0.613487 -0.087541 1.75451e-19)
(0.638638 -0.0427722 -1.56076e-19)
(0.652282 -0.00553347 -9.96499e-21)
(0.658317 0.0172832 7.1776e-20)
(0.663462 0.0258131 -9.13541e-20)
(0.667946 0.0231773 0)
(0.670231 0.0131442 -5.16116e-20)
(0.668358 -0.00030772 1.09968e-20)
(0.660357 -0.0130078 2.98694e-20)
(0.649878 -0.0228424 0)
(0.629556 -0.03025 -1.71945e-20)
(0.605585 -0.0354674 0)
(0.583528 -0.0380511 0)
(0.565777 -0.0386442 0)
(0.551705 -0.0382804 -4.51611e-21)
(0.541031 -0.0376195 4.44693e-21)
(0.532924 -0.0365301 1.36108e-21)
(0.526105 -0.0346187 -4.7665e-21)
(0.519509 -0.0318034 4.836e-22)
(0.512832 -0.0291657 1.17308e-21)
(0.50331 -0.0284764 0)
(-0.0648127 -0.725647 1.17946e-18)
(-0.0042733 -0.695916 -5.47785e-19)
(0.103476 -0.591684 0)
(0.162166 -0.48794 -4.30632e-19)
(0.216131 -0.398798 3.03787e-20)
(0.253137 -0.325575 3.94708e-19)
(0.278858 -0.262096 2.19539e-20)
(0.295535 -0.204097 -2.09288e-20)
(0.313569 -0.148987 -2.94865e-22)
(0.319161 -0.0928801 1.41879e-19)
(0.32765 -0.0406116 -1.41805e-19)
(0.330875 -0.0038888 -6.4076e-20)
(0.336311 0.0165407 -2.90972e-21)
(0.340114 0.023307 1.18536e-19)
(0.34031 0.0211522 0)
(0.334902 0.0142843 -5.52146e-20)
(0.324077 0.0058568 4.38665e-20)
(0.308283 -0.00240817 -2.88801e-22)
(0.292709 -0.00952639 0)
(0.279626 -0.0159382 1.82508e-20)
(0.263335 -0.0229951 0)
(0.248855 -0.0290914 0)
(0.235898 -0.032966 0)
(0.224252 -0.0347812 9.76116e-21)
(0.213759 -0.0349922 -2.57334e-21)
(0.203801 -0.0336674 0)
(0.193679 -0.030746 -8.73254e-22)
(0.182311 -0.0265007 1.55565e-21)
(0.16971 -0.0224927 -1.49519e-21)
(0.154421 -0.021929 -2.62707e-22)
(-0.0885636 -0.797552 -5.56978e-19)
(-0.0672724 -0.732044 2.79496e-20)
(0.0153839 -0.610569 4.83554e-19)
(0.0343619 -0.494435 -4.21198e-19)
(0.05247 -0.39582 5.33264e-20)
(0.0505702 -0.316382 7.57645e-19)
(0.0389239 -0.248981 -3.88367e-19)
(0.0217817 -0.188565 2.12834e-20)
(0.00468779 -0.132688 -4.10275e-20)
(-0.00780515 -0.0828037 0)
(-0.0117804 -0.0414801 -1.87824e-19)
(-0.0077325 -0.0108749 2.52624e-19)
(-0.00149145 0.00869228 -8.51892e-20)
(0.00367388 0.0179 -4.45509e-20)
(0.00635733 0.0196774 -2.29403e-20)
(0.00585056 0.0167654 3.41116e-20)
(0.0023161 0.0108562 -1.09389e-20)
(-0.0041981 0.00307428 1.05367e-20)
(-0.0127047 -0.00477342 0)
(-0.0212984 -0.0111404 -9.14834e-21)
(-0.0319798 -0.0166088 -2.40817e-20)
(-0.0450315 -0.0215602 2.896e-20)
(-0.0585875 -0.0252636 -1.2792e-20)
(-0.0719866 -0.0275119 -4.04906e-21)
(-0.084814 -0.028252 4.70339e-22)
(-0.0972228 -0.0271643 0)
(-0.110089 -0.0239043 4.3383e-21)
(-0.12474 -0.018984 -8.14882e-22)
(-0.140954 -0.0147536 2.06693e-22)
(-0.153748 -0.0156458 5.04948e-22)
(-0.105464 -0.844403 -5.40857e-19)
(-0.123694 -0.731279 0)
(-0.0753806 -0.588832 0)
(-0.0980153 -0.461086 4.10865e-19)
(-0.124488 -0.361998 -8.16768e-19)
(-0.166042 -0.28117 4.04712e-19)
(-0.210928 -0.215506 0)
(-0.252996 -0.160626 1.64646e-19)
(-0.286832 -0.113541 -3.0582e-19)
(-0.308824 -0.0730693 3.04633e-19)
(-0.317389 -0.0395723 -1.62407e-19)
(-0.315649 -0.0142728 8.64859e-20)
(-0.307916 0.00230736 -8.54144e-20)
(-0.298478 0.011156 2.20701e-20)
(-0.289424 0.0140868 -6.93417e-20)
(-0.282452 0.0128909 4.48912e-20)
(-0.278639 0.00896433 0)
(-0.27883 0.00360084 -1.10436e-20)
(-0.283259 -0.00189017 -3.92508e-20)
(-0.291056 -0.00652989 3.87609e-20)
(-0.3014 -0.0104288 1.54236e-20)
(-0.31446 -0.0139703 -1.54384e-20)
(-0.329136 -0.0172263 -1.70803e-20)
(-0.343737 -0.0197421 1.09074e-20)
(-0.357721 -0.0208467 3.76781e-21)
(-0.371447 -0.0197355 0)
(-0.386248 -0.0157859 -3.15473e-21)
(-0.403364 -0.01001 5.28944e-22)
(-0.4209 -0.00621176 -8.65139e-22)
(-0.432178 -0.00869139 8.37354e-23)
(-0.111777 -0.859347 0)
(-0.168089 -0.686056 1.87905e-21)
(-0.169344 -0.530378 -1.40687e-20)
(-0.235584 -0.395908 0)
(-0.305196 -0.296408 -4.03274e-19)
(-0.380404 -0.220453 -7.28459e-22)
(-0.449376 -0.163712 3.5332e-19)
(-0.506393 -0.120375 2.04722e-20)
(-0.548091 -0.0863535 0)
(-0.573369 -0.0589767 2.01033e-20)
(-0.583435 -0.0368009 -1.69085e-19)
(-0.581658 -0.0195461 1.67208e-19)
(-0.572184 -0.00729458 0)
(-0.559459 0.00023678 9.26783e-20)
(-0.546265 0.00393331 -1.15206e-19)
(-0.535171 0.00492569 -2.37209e-20)
(-0.527988 0.00414142 6.95221e-20)
(-0.52584 0.00235889 1.08179e-20)
(-0.529054 0.000296452 -1.06076e-20)
(-0.537038 -0.00161201 8.30521e-21)
(-0.548622 -0.00351476 -9.40137e-22)
(-0.56241 -0.00579821 0)
(-0.577635 -0.00864763 1.07944e-20)
(-0.593161 -0.011402 -6.44297e-21)
(-0.608018 -0.012864 -7.86597e-21)
(-0.622938 -0.0115244 0)
(-0.639492 -0.0066303 9.22535e-22)
(-0.658704 -5.79984e-06 -1.75231e-21)
(-0.677762 0.00325222 0)
(-0.688877 -0.000564816 -3.63442e-22)
(-0.103874 -0.824168 0)
(-0.20086 -0.595316 -4.72048e-19)
(-0.263513 -0.428079 4.68615e-19)
(-0.379208 -0.292621 -2.62955e-20)
(-0.489338 -0.201817 2.45827e-20)
(-0.59135 -0.141007 0)
(-0.675926 -0.101938 0)
(-0.739819 -0.0766228 -2.04445e-20)
(-0.782978 -0.0592647 0)
(-0.807475 -0.0460967 0)
(-0.816471 -0.0351889 0)
(-0.813503 -0.0259547 8.90895e-20)
(-0.802768 -0.0183745 -1.80511e-19)
(-0.788058 -0.0124107 -4.01783e-21)
(-0.772975 -0.00786497 1.1742e-19)
(-0.760323 -0.00428789 -2.47881e-20)
(-0.752133 -0.00139048 -4.55282e-20)
(-0.749566 0.000912605 4.61791e-20)
(-0.75289 0.00273943 1.04088e-20)
(-0.761552 0.00402546 9.47217e-21)
(-0.774443 0.00435287 -8.36038e-21)
(-0.790118 0.00319222 0)
(-0.806774 0.000626054 0)
(-0.823242 -0.00240859 -4.51393e-21)
(-0.839402 -0.00410585 0)
(-0.855672 -0.00228932 1.97747e-21)
(-0.873848 0.00369385 -2.99362e-22)
(-0.894701 0.0110358 1.00632e-21)
(-0.914517 0.0135447 7.19673e-23)
(-0.926078 0.00840504 8.23712e-23)
(-0.0837967 -0.725102 5.3918e-19)
(-0.231409 -0.449532 -9.94292e-19)
(-0.372109 -0.277721 5.02265e-19)
(-0.537808 -0.155971 7.54416e-22)
(-0.684332 -0.0858561 0)
(-0.80463 -0.0509106 3.42333e-19)
(-0.895171 -0.0372519 -4.79537e-19)
(-0.958426 -0.0340666 1.59707e-19)
(-0.998737 -0.0347075 0)
(-1.01995 -0.0358377 -1.4557e-19)
(-1.02596 -0.0357124 1.83966e-19)
(-1.02077 -0.033838 2.23408e-20)
(-1.00828 -0.0303997 -2.36415e-20)
(-0.992248 -0.0257952 9.87554e-20)
(-0.976032 -0.0202091 -9.74088e-20)
(-0.962551 -0.013726 7.47109e-20)
(-0.954173 -0.00677718 -7.3591e-20)
(-0.951928 -0.000101741 -4.6193e-20)
(-0.956005 0.00586431 5.69447e-20)
(-0.965918 0.010632 0)
(-0.980599 0.0134602 8.83504e-21)
(-0.998454 0.0136495 7.30056e-21)
(-1.01756 0.0113041 0)
(-1.03617 0.00777217 4.43483e-21)
(-1.05372 0.0057081 -2.60805e-21)
(-1.07108 0.00788212 9.09989e-22)
(-1.08995 0.0146951 1.05458e-21)
(-1.11086 0.0224346 -9.97008e-22)
(-1.13029 0.0241204 3.62498e-22)
(-1.14091 0.0178174 0)
(-0.0656895 -0.550572 6.14054e-19)
(-0.280957 -0.248831 -1.66541e-20)
(-0.527577 -0.0635401 -2.85669e-20)
(-0.745811 0.025945 2.62437e-20)
(-0.911565 0.0475632 -3.45849e-19)
(-1.03154 0.04033 1.80859e-19)
(-1.11449 0.022195 1.36596e-19)
(-1.16895 0.00216136 1.69953e-19)
(-1.20145 -0.0156022 -3.05753e-19)
(-1.21696 -0.0296755 -5.05254e-20)
(-1.21817 -0.0394263 1.40662e-19)
(-1.20919 -0.0438894 6.55988e-22)
(-1.19401 -0.043718 -7.52274e-20)
(-1.17602 -0.0399121 9.7158e-20)
(-1.1582 -0.0328537 -1.05899e-19)
(-1.14366 -0.0230735 1.04502e-19)
(-1.13492 -0.0118012 0)
(-1.13309 -0.00039817 -4.86e-20)
(-1.13811 0.00998882 3.66214e-20)
(-1.14956 0.0185381 -1.06835e-20)
(-1.16648 0.0242048 -8.69164e-21)
(-1.18715 0.0259374 5.77925e-21)
(-1.20917 0.0237042 -2.25806e-20)
(-1.23026 0.0193565 5.71909e-21)
(-1.24918 0.0164151 -2.5553e-21)
(-1.26673 0.018316 -1.29729e-21)
(-1.28497 0.0255363 2.66495e-21)
(-1.30511 0.0334235 8.42906e-24)
(-1.32382 0.0344316 -3.56765e-22)
(-1.33365 0.0272578 0)
(-0.0782532 -0.276785 -2.02345e-20)
(-0.390449 0.122589 1.68154e-20)
(-0.720433 0.220486 2.83863e-20)
(-0.960808 0.211663 0)
(-1.13065 0.171254 1.49913e-19)
(-1.24628 0.122515 -3.02679e-19)
(-1.32221 0.07411 1.21755e-19)
(-1.36867 0.0322184 -1.7748e-20)
(-1.39339 -0.00127945 1.49828e-19)
(-1.40163 -0.0289079 -1.27363e-19)
(-1.39637 -0.0478566 1.08952e-19)
(-1.38156 -0.0573358 -1.3207e-19)
(-1.36204 -0.0591391 0)
(-1.34082 -0.0555856 0)
(-1.32038 -0.046917 5.61993e-20)
(-1.30393 -0.033334 -4.07311e-20)
(-1.29433 -0.0167816 0)
(-1.29274 2.43981e-05 1.39712e-20)
(-1.29891 0.0152562 -4.66712e-20)
(-1.31232 0.0280081 5.64865e-20)
(-1.3322 0.0369938 9.39432e-21)
(-1.35676 0.0405455 7.37317e-21)
(-1.38284 0.0382426 0)
(-1.40701 0.0324385 3.43757e-22)
(-1.42735 0.0276467 7.44313e-22)
(-1.44445 0.0284005 1.75545e-21)
(-1.46118 0.0355584 1.84869e-22)
(-1.47971 0.0437532 -2.32793e-22)
(-1.49739 0.0445229 -2.98814e-23)
(-1.50669 0.0367468 3.30478e-22)
(-0.102987 0.182244 0)
(-0.526245 0.538332 -4.09282e-19)
(-0.951174 0.51955 5.55507e-19)
(-1.21223 0.408065 -1.5311e-19)
(-1.37207 0.290991 0)
(-1.47254 0.190422 2.09229e-20)
(-1.5331 0.103311 1.35568e-19)
(-1.56457 0.0388267 -1.19736e-19)
(-1.57838 -0.00362118 0)
(-1.57746 -0.0351494 8.87009e-21)
(-1.56137 -0.0623682 -2.06454e-20)
(-1.53758 -0.0757862 -7.5363e-20)
(-1.51219 -0.0779129 9.67195e-20)
(-1.4867 -0.0739963 0)
(-1.4619 -0.0636211 -7.58658e-20)
(-1.44174 -0.04532 4.50844e-20)
(-1.43048 -0.0217588 -5.96926e-20)
(-1.42927 0.00155342 2.96556e-20)
(-1.43692 0.0221409 1.38138e-20)
(-1.45274 0.0395698 0)
(-1.47653 0.0525547 -9.27058e-21)
(-1.50646 0.058432 5.36422e-21)
(-1.53821 0.0559005 -1.24822e-20)
(-1.5667 0.047507 3.49742e-21)
(-1.58864 0.0392975 -1.9646e-22)
(-1.60447 0.0376393 -1.17938e-21)
(-1.61823 0.044187 2.35849e-22)
(-1.63399 0.0530077 -1.07522e-21)
(-1.65011 0.054305 6.8651e-23)
(-1.65881 0.0462803 -7.97127e-22)
(-0.132572 1.34326 -1.399e-18)
(-0.655589 1.48378 3.55362e-19)
(-1.28361 1.0053 1.06557e-19)
(-1.54611 0.569218 0)
(-1.66406 0.314054 -6.21051e-20)
(-1.72673 0.205385 1.76156e-20)
(-1.75429 0.125005 2.53816e-20)
(-1.75191 0.0708856 6.69333e-21)
(-1.74293 0.0235684 0)
(-1.7344 -0.0413823 -8.75024e-21)
(-1.71159 -0.0906881 8.88391e-20)
(-1.6753 -0.10418 -8.74722e-20)
(-1.64219 -0.100024 5.65623e-20)
(-1.61182 -0.0937047 -5.58127e-20)
(-1.58078 -0.0825509 -5.04415e-20)
(-1.55445 -0.0590414 -2.11668e-21)
(-1.54065 -0.0271059 1.14148e-19)
(-1.54045 0.00411865 -1.26626e-19)
(-1.55031 0.0306044 6.09967e-20)
(-1.56908 0.0532782 -1.28837e-20)
(-1.59778 0.0714522 -1.74652e-20)
(-1.63504 0.0807063 1.72068e-20)
(-1.67496 0.0776615 3.81692e-21)
(-1.70959 0.0649237 -5.64798e-21)
(-1.73346 0.051077 2.68281e-21)
(-1.74689 0.0450816 -5.92746e-22)
(-1.75592 0.0502762 7.4332e-22)
(-1.76723 0.0603679 -1.17135e-21)
(-1.78087 0.0634607 0)
(-1.78872 0.0557596 5.44185e-22)
(9.99023 0.112476 -1.95668e-19)
(9.98091 0.223749 -1.97788e-19)
(9.96126 0.335563 -4.02778e-19)
(9.93118 0.449849 0)
(9.89315 0.568297 0)
(9.84854 0.692451 -1.67396e-18)
(9.79772 0.823727 8.46396e-19)
(9.74089 0.96347 -1.72456e-18)
(9.6783 1.11309 4.36434e-18)
(9.6105 1.27401 -1.76341e-18)
(9.53782 1.44773 -1.79169e-18)
(9.46058 1.63582 1.80428e-18)
(9.37978 1.83989 1.82566e-18)
(9.29615 2.06157 3.67781e-18)
(9.20986 2.30269 -3.69018e-18)
(9.12204 2.56557 0)
(9.03418 2.85278 8.39149e-18)
(8.9472 3.167 -1.39717e-17)
(8.8625 3.51155 7.4321e-18)
(8.78233 3.89051 -6.40564e-18)
(8.70903 4.30863 8.17622e-18)
(8.64563 4.77183 -4.62572e-19)
(8.59615 5.28778 -6.82271e-18)
(8.56585 5.86645 6.70038e-18)
(8.56251 6.52064 0)
(8.59207 7.27021 -4.63995e-19)
(8.69682 8.13917 0)
(8.80805 9.20298 0)
(9.66516 10.4196 0)
(10.2785 13.265 -1.05671e-18)
(9.99046 0.116739 -1.90039e-19)
(9.98261 0.232225 1.92201e-19)
(9.96542 0.348255 7.76743e-19)
(9.93868 0.466775 -7.89851e-19)
(9.9049 0.589509 7.99423e-19)
(9.86549 0.718028 8.13161e-19)
(9.82094 0.853741 -8.24142e-19)
(9.77142 0.99801 8.2938e-19)
(9.7171 1.15225 -8.39236e-19)
(9.65874 1.3179 0)
(9.5967 1.49636 0)
(9.53159 1.68917 -3.48123e-18)
(9.46457 1.8979 2.61877e-18)
(9.39632 2.12423 -1.04789e-20)
(9.3274 2.36995 8.915e-19)
(9.25901 2.63714 4.43091e-18)
(9.19298 2.92826 -4.44323e-18)
(9.13074 3.24597 -7.0555e-18)
(9.07423 3.59329 3.52103e-20)
(9.02628 3.97387 6.94557e-18)
(8.99019 4.39203 -8.60274e-19)
(8.9701 4.85296 -4.19727e-19)
(8.97183 5.36318 0)
(9.00328 5.93068 -1.87124e-19)
(9.07616 6.56493 0)
(9.20435 7.27894 4.99486e-18)