/*--------------------------------*- C++ -*----------------------------------*\
| =========                 |                                                 |
| \\      /  F ield         | OpenFOAM: The Open Source CFD Toolbox           |
|  \\    /   O peration     | Version:  2006                                  |
|   \\  /    A nd           | Website:  www.openfoam.com                      |
|    \\/     M anipulation  |                                                 |
\*---------------------------------------------------------------------------*/
FoamFile
{
    version     2.0;
    format      ascii;
    class       surfaceVectorField;
    location    "6.9";
    object      Uf;
}
// * * * * * * * * * * * * * * * * * * * * * * * * * * * * * * * * * * * * * //

dimensions      [0 1 -1 0 0 0 0];


internalField   nonuniform List<vector> 
5457
(
(9.92088 0.0251095 0)
(9.97125 0.0387456 0)
(9.82402 0.0328267 0)
(9.92859 0.0485849 0)
(9.70961 0.0393119 0)
(9.85548 0.0587678 0)
(9.57544 0.0460114 0)
(9.7568 0.070593 0)
(9.42138 0.0529488 0)
(9.63753 0.0830131 0)
(9.24755 0.0601661 0)
(9.49861 0.0959362 0)
(9.05363 0.0678109 0)
(9.33931 0.109612 0)
(8.83893 0.0760346 0)
(9.15875 0.124289 0)
(8.60252 0.0849705 0)
(8.9561 0.140168 0)
(8.34327 0.0947453 0)
(8.73039 0.157434 0)
(8.05985 0.105488 0)
(8.48041 0.176271 0)
(7.7508 0.117329 0)
(8.20477 0.196859 0)
(7.41456 0.130397 0)
(7.90195 0.219364 0)
(7.0495 0.144812 0)
(7.5703 0.243927 0)
(6.65402 0.160675 0)
(7.20818 0.270637 0)
(6.2267 0.178047 0)
(6.81399 0.299506 0)
(5.76641 0.196932 0)
(6.38632 0.33042 0)
(5.27255 0.217237 0)
(5.92415 0.36309 0)
(4.74535 0.23874 0)
(5.42708 0.396982 0)
(4.18618 0.261036 0)
(4.89563 0.431243 0)
(3.59794 0.283492 0)
(4.33162 0.464625 0)
(2.98553 0.305205 0)
(3.73858 0.49543 0)
(2.35609 0.325071 0)
(3.12224 0.521516 0)
(1.71908 0.342549 0)
(2.49104 0.540559 0)
(1.08432 0.361882 0)
(1.85583 0.551673 0)
(0.451808 0.348677 0)
(1.24546 0.56302 0)
(-0.145857 0.102454 0)
(0.608885 0.544871 0)
(-0.423627 -0.207097 0)
(0.0946537 0.25936 0)
(-0.402159 -0.361257 0)
(-0.133687 -0.0205304 0)
(-0.119681 -0.39389 0)
(9.99641 0.0516721 0)
(9.99705 0.0405043 0)
(9.95879 0.0708611 0)
(9.97851 0.0674539 0)
(9.89824 0.0879863 0)
(9.93377 0.0898692 0)
(9.81659 0.105984 0)
(9.86453 0.113554 0)
(9.71359 0.124921 0)
(9.77438 0.138514 0)
(9.58909 0.144853 0)
(9.66435 0.164645 0)
(9.44275 0.16609 0)
(9.53397 0.192331 0)
(9.27391 0.188967 0)
(9.3825 0.222031 0)
(9.08167 0.213784 0)
(9.20919 0.254149 0)
(8.8649 0.240817 0)
(9.01316 0.289065 0)
(8.6223 0.270339 0)
(8.79332 0.327155 0)
(8.35239 0.30261 0)
(8.54836 0.36879 0)
(8.05356 0.337862 0)
(8.27683 0.414322 0)
(7.72411 0.376268 0)
(7.97717 0.464053 0)
(7.36236 0.417909 0)
(7.64771 0.518197 0)
(6.96671 0.462716 0)
(7.28681 0.576816 0)
(6.53581 0.510395 0)
(6.89294 0.639737 0)
(6.06881 0.560342 0)
(6.46479 0.70644 0)
(5.56557 0.61153 0)
(6.00157 0.775922 0)
(5.02707 0.662393 0)
(5.50323 0.846536 0)
(4.45585 0.710715 0)
(4.97086 0.915817 0)
(3.85646 0.753545 0)
(4.40715 0.980316 0)
(3.23616 0.787199 0)
(3.81701 1.03546 0)
(2.60578 0.807502 0)
(3.20842 1.07549 0)
(1.98276 0.810465 0)
(2.59336 1.09315 0)
(1.40526 0.776891 0)
(1.99618 1.07708 0)
(0.929727 0.646391 0)
(1.41947 0.978398 0)
(0.439832 0.384324 0)
(0.937553 0.716784 0)
(0.0591606 -0.118627 0)
(0.44377 0.343508 0)
(0.174916 -0.335946 0)
(9.98903 0.0594304 0)
(9.99481 0.045877 0)
(9.95434 0.0894757 0)
(9.97368 0.0848534 0)
(9.89729 0.118031 0)
(9.92984 0.119173 0)
(9.82047 0.147897 0)
(9.86357 0.153975 0)
(9.72416 0.179421 0)
(9.77736 0.190407 0)
(9.60822 0.212774 0)
(9.67227 0.228636 0)
(9.47235 0.248392 0)
(9.5481 0.269128 0)
(9.31608 0.286774 0)
(9.40432 0.312496 0)
(9.13869 0.328398 0)
(9.24035 0.359326 0)
(8.93925 0.373724 0)
(9.05549 0.410176 0)
(8.71665 0.423209 0)
(8.8489 0.465601 0)
(8.4696 0.4773 0)
(8.61951 0.526156 0)
(8.19667 0.536403 0)
(8.36615 0.592377 0)
(7.89632 0.600848 0)
(8.08751 0.664744 0)
(7.56691 0.670817 0)
(7.78219 0.743626 0)
(7.20682 0.746264 0)
(7.44872 0.829198 0)
(6.81455 0.826791 0)
(7.08567 0.921329 0)
(6.38886 0.911492 0)
(6.69169 1.01942 0)
(5.92901 0.998768 0)
(6.2657 1.12218 0)
(5.43511 1.0861 0)
(5.80709 1.22743 0)
(4.90852 1.16983 0)
(5.31605 1.33176 0)
(4.3524 1.2449 0)
(4.79395 1.4302 0)
(3.77256 1.30455 0)
(4.24394 1.51588 0)
(3.1787 1.33984 0)
(3.67178 1.57943 0)
(2.5866 1.33812 0)
(3.08629 1.60774 0)
(2.01984 1.27296 0)
(2.5029 1.58157 0)
(1.48693 1.0954 0)
(1.92872 1.46424 0)
(0.958284 0.769155 0)
(1.38523 1.21039 0)
(0.47987 0.202431 0)
(0.829532 0.801018 0)
(0.433725 0.134057 0)
(9.98515 0.0716131 0)
(9.99367 0.0531473 0)
(9.95039 0.113629 0)
(9.97088 0.10229 0)
(9.89437 0.154132 0)
(9.92691 0.147952 0)
(9.81882 0.195572 0)
(9.86185 0.19372 0)
(9.72442 0.23881 0)
(9.77746 0.241276 0)
(9.61113 0.284323 0)
(9.67467 0.291162 0)
(9.47875 0.33272 0)
(9.55343 0.343954 0)
(9.32695 0.384674 0)
(9.41336 0.400371 0)
(9.15523 0.440847 0)
(9.25401 0.46114 0)
(8.96291 0.501885 0)
(9.07484 0.526963 0)
(8.74917 0.568431 0)
(8.8752 0.598539 0)
(8.51304 0.641117 0)
(8.6543 0.676566 0)
(8.25346 0.720536 0)
(8.41123 0.761727 0)
(7.96925 0.807198 0)
(8.14499 0.854644 0)
(7.65917 0.901446 0)
(7.85454 0.955828 0)
(7.32191 1.00336 0)
(7.53874 1.06558 0)
(6.95619 1.11258 0)
(7.19645 1.18386 0)
(6.56083 1.22815 0)
(6.82651 1.31009 0)
(6.13487 1.34818 0)
(6.42787 1.44293 0)
(5.67782 1.46961 0)
(5.99964 1.57992 0)
(5.18997 1.58778 0)
(5.54131 1.71709 0)
(4.67284 1.69603 0)
(5.05302 1.84855 0)
(4.12977 1.78515 0)
(4.53593 1.96584 0)
(3.56662 1.84252 0)
(3.9927 2.0573 0)
(2.99202 1.85072 0)
(3.42757 2.10714 0)
(2.41582 1.78247 0)
(2.84761 2.09447 0)
(1.84052 1.60044 0)
(2.25621 1.98872 0)
(1.25937 1.2784 0)
(1.6603 1.75302 0)
(0.666768 0.789512 0)
(1.02395 1.36773 0)
(0.523032 0.787116 0)
(9.98337 0.0844063 0)
(9.99316 0.0612906 0)
(9.94821 0.136835 0)
(9.96959 0.119925 0)
(9.89315 0.18803 0)
(9.92575 0.176238 0)
(9.81907 0.240166 0)
(9.862 0.232695 0)
(9.72663 0.294465 0)
(9.77964 0.291084 0)
(9.6159 0.351657 0)
(9.6794 0.352271 0)
(9.48672 0.412468 0)
(9.56128 0.416975 0)
(9.33879 0.477675 0)
(9.42497 0.486006 0)
(9.17171 0.54805 0)
(9.2701 0.560203 0)
(8.98493 0.624355 0)
(9.09621 0.640387 0)
(8.77779 0.707346 0)
(8.90275 0.727369 0)
(8.54954 0.797768 0)
(8.68907 0.82196 0)
(8.29935 0.896332 0)
(8.45444 0.924947 0)
(8.02634 1.00366 0)
(8.19807 1.03706 0)
(7.72957 1.12021 0)
(7.91911 1.15892 0)
(7.40804 1.24618 0)
(7.61668 1.29094 0)
(7.06075 1.38128 0)
(7.28984 1.43316 0)
(6.68667 1.5246 0)
(6.93761 1.58512 0)
(6.28483 1.6742 0)
(6.55897 1.74552 0)
(5.85435 1.8268 0)
(6.15284 1.9119 0)
(5.39467 1.97727 0)
(5.71819 2.08018 0)
(4.90572 2.11806 0)
(5.25404 2.2441 0)
(4.38821 2.23861 0)
(4.7597 2.39461 0)
(3.84391 2.32454 0)
(4.23491 2.51919 0)
(3.2754 2.35694 0)
(3.67985 2.60123 0)
(2.68537 2.31057 0)
(3.09569 2.61968 0)
(2.07267 2.15498 0)
(2.48166 2.54729 0)
(1.42936 1.86736 0)
(1.83989 2.35368 0)
(0.742603 1.41953 0)
(1.13135 2.02448 0)
(0.5433 1.51445 0)
(9.98264 0.0974963 0)
(9.99299 0.0697917 0)
(9.94744 0.159773 0)
(9.96925 0.137581 0)
(9.89354 0.221345 0)
(9.92597 0.203924 0)
(9.82134 0.284089 0)
(9.86381 0.270685 0)
(9.73134 0.349344 0)
(9.78386 0.339579 0)
(9.62367 0.418015 0)
(9.68665 0.411693 0)
(9.49819 0.490935 0)
(9.57219 0.487899 0)
(9.35466 0.568972 0)
(9.44022 0.569101 0)
(9.1927 0.653003 0)
(9.29044 0.656232 0)
(9.01184 0.743898 0)
(9.12243 0.750213 0)
(8.81152 0.842519 0)
(8.93572 0.851958 0)
(8.59109 0.949713 0)
(8.72973 0.96237 0)
(8.34985 1.06629 0)
(8.50382 1.08233 0)
(8.08706 1.19297 0)
(8.25728 1.21266 0)
(7.80192 1.33032 0)
(7.98937 1.35406 0)
(7.49359 1.47861 0)
(7.69929 1.50704 0)
(7.16117 1.63771 0)
(7.38616 1.67178 0)
(6.8037 1.80677 0)
(7.04901 1.84794 0)
(6.42008 1.98399 0)
(6.68673 2.03438 0)
(6.0091 2.16616 0)
(6.29798 2.22886 0)
(5.56937 2.34812 0)
(5.88116 2.4275 0)
(5.09942 2.52222 0)
(5.4343 2.62428 0)
(4.5977 2.67757 0)
(4.95507 2.81031 0)
(4.06265 2.79949 0)
(4.4408 2.97323 0)
(3.49266 2.86909 0)
(3.88847 3.09662 0)
(2.88579 2.8629 0)
(3.29518 3.15988 0)
(2.23798 2.75389 0)
(2.65686 3.13788 0)
(1.54242 2.52099 0)
(1.97481 3.00315 0)
(0.793636 2.13129 0)
(1.20722 2.74055 0)
(0.556727 2.29177 0)
(9.9825 0.110624 0)
(9.99302 0.0783601 0)
(9.94771 0.182321 0)
(9.96954 0.155035 0)
(9.89523 0.253813 0)
(9.92722 0.230882 0)
(9.82524 0.326762 0)
(9.86697 0.307504 0)
(9.73814 0.40255 0)
(9.78978 0.386517 0)
(9.63404 0.482229 0)
(9.69606 0.469143 0)
(9.51286 0.566753 0)
(9.5858 0.556392 0)
(9.37439 0.657089 0)
(9.45881 0.649266 0)
(9.21829 0.754211 0)
(9.31481 0.748784 0)
(9.04415 0.859084 0)
(9.15347 0.855961 0)
(8.85146 0.972665 0)
(8.97435 0.971802 0)
(8.63963 1.09589 0)
(8.77692 1.0973 0)
(8.40803 1.22965 0)
(8.56059 1.23342 0)
(8.15595 1.37476 0)
(8.3247 1.38109 0)
(7.88264 1.53188 0)
(8.06853 1.5411 0)
(7.58726 1.7014 0)
(7.79125 1.71407 0)
(7.26888 1.88332 0)
(7.49195 1.90033 0)
(6.92641 2.077 0)
(7.16953 2.09973 0)
(6.55849 2.28089 0)
(6.82264 2.31143 0)
(6.16344 2.49209 0)
(6.44956 2.53353 0)
(5.73909 2.70586 0)
(6.04806 2.76268 0)
(5.28269 2.91501 0)
(5.6152 2.9935 0)
(4.79078 3.10917 0)
(5.14719 3.21787 0)
(4.25925 3.2742 0)
(4.63933 3.42428 0)
(3.68334 3.39185 0)
(4.086 3.59714 0)
(3.058 3.43966 0)
(3.48126 3.71652 0)
(2.37769 3.39175 0)
(2.81831 3.75809 0)
(1.63788 3.22612 0)
(2.09911 3.69393 0)
(0.839115 2.90078 0)
(1.27889 3.50441 0)
(0.573347 3.11363 0)
(9.98273 0.123579 0)
(9.99316 0.0868159 0)
(9.94873 0.204306 0)
(9.97027 0.17209 0)
(9.89794 0.285247 0)
(9.92927 0.256971 0)
(9.83051 0.36796 0)
(9.87124 0.342982 0)
(9.74671 0.453846 0)
(9.79716 0.431672 0)
(9.64669 0.544071 0)
(9.70735 0.524344 0)
(9.53039 0.639702 0)
(9.60181 0.622129 0)
(9.39763 0.741795 0)
(9.48039 0.72612 0)
(9.24814 0.851412 0)
(9.34287 0.83742 0)
(9.08154 0.969606 0)
(9.18895 0.95713 0)
(8.89737 1.09742 0)
(9.01825 1.08634 0)
(8.69511 1.23589 0)
(8.83031 1.22614 0)
(8.47414 1.38599 0)
(8.62456 1.37759 0)
(8.23377 1.54864 0)
(8.40037 1.5417 0)
(7.97323 1.72462 0)
(8.15702 1.7194 0)
(7.69161 1.91447 0)
(7.89364 1.91145 0)
(7.38785 2.11838 0)
(7.6092 2.11839 0)
(7.06061 2.336 0)
(7.30241 2.34032 0)
(6.70818 2.56616 0)
(6.97163 2.5768 0)
(6.32834 2.80652 0)
(6.61469 2.82647 0)
(5.91806 3.05308 0)
(6.22868 3.08674 0)
(5.47341 3.29956 0)
(5.8097 3.35321 0)
(4.98926 3.53667 0)
(5.3526 3.61901 0)
(4.45928 3.75142 0)
(4.85082 3.87401 0)
(3.87616 3.92645 0)
(4.29636 4.10394 0)
(3.23227 4.03983 0)
(3.68048 4.28967 0)
(2.52078 4.06494 0)
(2.99345 4.40673 0)
(1.73833 3.97606 0)
(2.23732 4.42451 0)
(0.889451 3.71867 0)
(1.36332 4.3162 0)
(0.598734 3.98479 0)
(9.98321 0.136201 0)
(9.99339 0.0950385 0)
(9.95032 0.225568 0)
(9.97131 0.188586 0)
(9.90151 0.315491 0)
(9.93193 0.282044 0)
(9.83694 0.407497 0)
(9.87644 0.376954 0)
(9.75684 0.503005 0)
(9.8058 0.474833 0)
(9.66136 0.603269 0)
(9.72031 0.577042 0)
(9.55047 0.709452 0)
(9.61996 0.684806 0)
(9.42405 0.822695 0)
(9.50466 0.799309 0)
(9.28185 0.944141 0)
(9.37423 0.921728 0)
(9.12357 1.07493 0)
(9.22845 1.05324 0)
(8.94881 1.21619 0)
(9.06697 1.19504 0)
(8.75707 1.36905 0)
(8.8894 1.34828 0)
(8.54778 1.53459 0)
(8.69522 1.51413 0)
(8.32026 1.71386 0)
(8.48384 1.69372 0)
(8.07371 1.90776 0)
(8.25452 1.88812 0)
(7.80714 2.11705 0)
(8.00637 2.09829 0)
(7.51932 2.34219 0)
(7.73826 2.325 0)
(7.20867 2.58319 0)
(7.44873 2.56872 0)
(6.87309 2.83943 0)
(7.13584 2.82949 0)
(6.50975 3.10931 0)
(6.797 3.10668 0)
(6.11485 3.38984 0)
(6.42865 3.39866 0)
(5.68327 3.67606 0)
(6.02601 3.70234 0)
(5.20833 3.96024 0)
(5.58263 4.01252 0)
(4.68159 4.231 0)
(5.09015 4.32099 0)
(4.09311 4.4723 0)
(4.53809 4.61539 0)
(3.43234 4.6625 0)
(3.9145 4.87784 0)
(2.68997 4.77308 0)
(3.20549 5.08352 0)
(1.86173 4.77229 0)
(2.41111 5.19786 0)
(0.954113 4.58959 0)
(1.47616 5.18416 0)
(0.639137 4.91929 0)
(9.98386 0.148366 0)
(9.99368 0.102942 0)
(9.95235 0.245966 0)
(9.97261 0.20439 0)
(9.90579 0.344393 0)
(9.9351 0.305964 0)
(9.84438 0.445191 0)
(9.88241 0.409263 0)
(9.76834 0.549803 0)
(9.81552 0.515808 0)
(9.67781 0.659551 0)
(9.73472 0.627002 0)
(9.57282 0.775679 0)
(9.64 0.744149 0)
(9.45329 0.89941 0)
(9.53131 0.868508 0)
(9.31903 1.03196 0)
(9.40855 1.00133 0)
(9.1698 1.17455 0)
(9.27153 1.14387 0)
(9.00524 1.3284 0)
(9.12001 1.29738 0)
(8.82494 1.49472 0)
(8.95363 1.46313 0)
(8.62836 1.67471 0)
(8.77196 1.64237 0)
(8.41486 1.86956 0)
(8.57445 1.83637 0)
(8.18362 2.08035 0)
(8.36039 2.04637 0)
(7.93361 2.30808 0)
(8.12891 2.27352 0)
(7.66348 2.55354 0)
(7.87881 2.51891 0)
(7.37143 2.81722 0)
(7.60854 2.78344 0)
(7.05504 3.09916 0)
(7.31597 3.06773 0)
(6.71099 3.3987 0)
(6.99818 3.37202 0)
(6.33476 3.71413 0)
(6.65115 3.69584 0)
(5.92019 4.04214 0)
(6.26934 4.03772 0)
(5.45908 4.3771 0)
(5.84522 4.39457 0)
(4.94084 4.70991 0)
(5.36867 4.76076 0)
(4.35247 5.02652 0)
(4.82654 5.12676 0)
(3.67932 5.30613 0)
(4.20289 5.47704 0)
(2.90725 5.51807 0)
(3.4776 5.78739 0)
(2.02745 5.62284 0)
(2.64475 6.01935 0)
(1.04498 5.52924 0)
(1.63751 6.1237 0)
(0.704372 5.94278 0)
(9.98465 0.159978 0)
(9.99402 0.11046 0)
(9.95473 0.265377 0)
(9.97409 0.219396 0)
(9.91065 0.371814 0)
(9.93868 0.328606 0)
(9.85267 0.480876 0)
(9.88905 0.439768 0)
(9.78101 0.594036 0)
(9.82619 0.554424 0)
(9.69582 0.712672 0)
(9.75039 0.674015 0)
(9.59717 0.838099 0)
(9.66168 0.799907 0)
(9.48504 0.971608 0)
(9.56004 0.933425 0)
(9.35929 1.11449 0)
(9.44545 1.07589 0)
(9.21975 1.26802 0)
(9.31778 1.22861 0)
(9.06615 1.43352 0)
(9.17686 1.39291 0)
(8.89813 1.61228 0)
(9.02243 1.57015 0)
(8.71524 1.80564 0)
(8.85412 1.76169 0)
(8.51688 2.01491 0)
(8.67148 1.96891 0)
(8.30228 2.24138 0)
(8.47387 2.19323 0)
(8.07041 2.48633 0)
(8.26047 2.43603 0)
(7.81989 2.75094 0)
(8.03013 2.69874 0)
(7.54884 3.03623 0)
(7.78131 2.98272 0)
(7.25463 3.34303 0)
(7.51183 3.28927 0)
(6.93365 3.67177 0)
(7.21867 3.61955 0)
(6.58089 4.02224 0)
(6.89759 3.97447 0)
(6.18939 4.39321 0)
(6.54267 4.35443 0)
(5.74967 4.78169 0)
(6.14562 4.7589 0)
(5.24897 5.18179 0)
(5.69494 5.18565 0)
(4.67075 5.58284 0)
(5.17488 5.62929 0)
(3.99467 5.96653 0)
(4.56484 6.07884 0)
(3.19816 6.30161 0)
(3.83603 6.51354 0)
(2.26153 6.54047 0)
(2.9705 6.89389 0)
(1.18046 6.56479 0)
(1.87886 7.15754 0)
(0.812661 7.09897 0)
(9.98554 0.17096 0)
(9.9944 0.117544 0)
(9.95739 0.283693 0)
(9.97572 0.233514 0)
(9.91601 0.397627 0)
(9.94259 0.349862 0)
(9.8617 0.514402 0)
(9.89624 0.468342 0)
(9.7947 0.635524 0)
(9.83765 0.590529 0)
(9.71518 0.762418 0)
(9.76714 0.717898 0)
(9.62326 0.896456 0)
(9.68477 0.851863 0)
(9.51896 1.03899 0)
(9.59057 0.993807 0)
(9.40223 1.19137 0)
(9.48458 1.1451 0)
(9.27296 1.35494 0)
(9.36676 1.30711 0)
(9.13096 1.53108 0)
(9.23701 1.48122 0)
(8.97599 1.72119 0)
(9.09517 1.66887 0)
(8.80766 1.92671 0)
(8.94099 1.87151 0)
(8.62549 2.14909 0)
(8.77411 2.09064 0)
(8.42879 2.38986 0)
(8.59403 2.32783 0)
(8.21663 2.65055 0)
(8.40005 2.58473 0)
(7.98771 2.93276 0)
(8.19116 2.86308 0)
(7.74018 3.2381 0)
(7.96596 3.16471 0)
(7.47148 3.56823 0)
(7.72244 3.4916 0)
(7.17797 3.92477 0)
(7.45774 3.84591 0)
(6.85451 4.30922 0)
(7.16781 4.22996 0)
(6.49382 4.72273 0)
(6.84682 4.64621 0)
(6.08565 5.16562 0)
(6.48642 5.09709 0)
(5.61554 5.63638 0)
(6.07459 5.58458 0)
(5.06341 6.12986 0)
(5.59386 6.10916 0)
(4.40196 6.63374 0)
(5.01935 6.66761 0)
(3.59582 7.12107 0)
(4.31221 7.24847 0)
(2.604 7.54032 0)
(3.43526 7.81997 0)
(1.39407 7.73997 0)
(2.25607 8.3146 0)
(1.00238 8.46438 0)
(9.9865 0.181248 0)
(9.9948 0.124153 0)
(9.96027 0.300825 0)
(9.97747 0.246674 0)
(9.92177 0.421724 0)
(9.94676 0.369638 0)
(9.87134 0.545639 0)
(9.90388 0.494874 0)
(9.80924 0.67411 0)
(9.84978 0.623991 0)
(9.73569 0.8086 0)
(9.7848 0.758492 0)
(9.65082 0.95053 0)
(9.70904 0.899831 0)
(9.55473 1.1013 0)
(9.6226 1.04943 0)
(9.44745 1.2623 0)
(9.52558 1.20871 0)
(9.32894 1.43494 0)
(9.41801 1.37907 0)
(9.19911 1.62066 0)
(9.29992 1.56197 0)
(9.05783 1.82094 0)
(9.17122 1.75887 0)
(8.90484 2.0373 0)
(9.0318 1.97132 0)
(8.73978 2.27136 0)
(8.88146 2.20092 0)
(8.56214 2.52481 0)
(8.71984 2.4494 0)
(8.37114 2.79948 0)
(8.54646 2.71861 0)
(8.16568 3.09734 0)
(8.36054 3.01057 0)
(7.94416 3.42059 0)
(8.16097 3.32756 0)
(7.70432 3.7717 0)
(7.94612 3.67221 0)
(7.44284 4.15349 0)
(7.71361 4.04757 0)
(7.15499 4.56921 0)
(7.46 4.45733 0)
(6.83389 5.0226 0)
(7.18027 4.90597 0)
(6.46948 5.51776 0)
(6.86703 5.39903 0)
(6.04688 6.05884 0)
(6.50921 5.94319 0)
(5.54385 6.64884 0)
(6.08986 6.54634 0)
(4.92677 7.28702 0)
(5.58283 7.2169 0)
(4.14459 7.9613 0)
(4.94207 7.96156 0)
(3.1213 8.6332 0)
(4.10872 8.77544 0)
(1.75588 9.12716 0)
(2.87782 9.62036 0)
(1.36431 10.1842 0)
(9.98754 0.190794 0)
(9.99523 0.130257 0)
(9.96333 0.316699 0)
(9.97932 0.258817 0)
(9.92786 0.444011 0)
(9.95115 0.387858 0)
(9.88148 0.574476 0)
(9.91188 0.519272 0)
(9.8245 0.709665 0)
(9.86244 0.654699 0)
(9.75713 0.85107 0)
(9.80318 0.795667 0)
(9.6796 1.00015 0)
(9.73427 0.943658 0)
(9.59203 1.15833 0)
(9.65584 1.10013 0)
(9.49454 1.32706 0)
(9.56808 1.26651 0)
(9.38718 1.50777 0)
(9.4711 1.44426 0)
(9.26999 1.70195 0)
(9.36502 1.63485 0)
(9.14293 1.91114 0)
(9.2499 1.8398 0)
(9.00591 2.13695 0)
(9.12576 2.06071 0)
(8.85875 2.3811 0)
(8.99255 2.29925 0)
(8.70112 2.64545 0)
(8.85016 2.55727 0)
(8.53252 2.93206 0)
(8.69832 2.83678 0)
(8.35216 3.24324 0)
(8.53662 3.14004 0)
(8.15888 3.58167 0)
(8.36436 3.46967 0)
(7.95094 3.95054 0)
(8.18047 3.82879 0)
(7.72579 4.35374 0)
(7.98336 4.22121 0)
(7.47967 4.79612 0)
(7.77068 4.65172 0)
(7.20703 5.28387 0)
(7.53892 5.12654 0)
(6.89947 5.82496 0)
(7.28285 5.65385 0)
(6.54403 6.42975 0)
(6.99447 6.24481 0)
(6.11996 7.11162 0)
(6.66104 6.91491 0)
(5.59251 7.88772 0)
(6.26199 7.68639 0)
(4.9002 8.77783 0)
(5.75687 8.59271 0)
(3.92607 9.80112 0)
(5.08639 9.68502 0)
(2.43249 10.8557 0)
(3.97834 11.0487 0)
(2.14535 12.5666 0)
(9.98862 0.199557 0)
(9.99567 0.135832 0)
(9.96652 0.331253 0)
(9.98124 0.269898 0)
(9.9342 0.464407 0)
(9.95571 0.404461 0)
(9.89203 0.600807 0)
(9.92017 0.541462 0)
(9.84031 0.74205 0)
(9.87553 0.682566 0)
(9.77933 0.889652 0)
(9.82217 0.82932 0)
(9.70934 1.04509 0)
(9.7603 0.983223 0)
(9.63053 1.20983 0)
(9.69012 1.14575 0)
(9.5431 1.38532 0)
(9.61188 1.31835 0)
(9.4472 1.57304 0)
(9.5258 1.5025 0)
(9.34299 1.7745 0)
(9.43209 1.69967 0)
(9.23056 1.99127 0)
(9.33096 1.91142 0)
(9.10999 2.22502 0)
(9.22257 2.13937 0)
(8.9813 2.47755 0)
(9.10708 2.38524 0)
(8.84442 2.75083 0)
(8.98461 2.65094 0)
(8.69917 3.04708 0)
(8.8552 2.93858 0)
(8.5452 3.36886 0)
(8.71883 3.25056 0)
(8.3819 3.7192 0)
(8.57534 3.58973 0)
(8.20831 4.10181 0)
(8.42438 3.9595 0)
(8.02297 4.52136 0)
(8.26538 4.36414 0)
(7.8237 4.98388 0)
(8.09742 4.80912 0)
(7.6072 5.49742 0)
(7.91915 5.30168 0)
(7.36844 6.07301 0)
(7.72858 5.85168 0)
(7.09948 6.72633 0)
(7.52284 6.47305 0)
(6.78716 7.48054 0)
(7.29765 7.18636 0)
(6.4079 8.37236 0)
(7.04753 8.02398 0)
(5.91466 9.46617 0)
(6.76224 9.04238 0)
(5.19486 10.9081 0)
(6.46071 10.3571 0)
(3.88299 13.1772 0)
(6.18761 12.3032 0)
(5.25536 16.3698 0)
(0.189767 -0.112605 0)
(0.111287 -0.185865 0)
(0.369258 -0.0946737 0)
(0.270262 -0.171648 0)
(0.515375 -0.0710195 0)
(0.427632 -0.136432 0)
(0.62703 -0.0497058 0)
(0.558548 -0.101792 0)
(0.708334 -0.0322151 0)
(0.658457 -0.0723717 0)
(0.764219 -0.0184045 0)
(0.731497 -0.0485701 0)
(0.79943 -0.00781161 0)
(0.783115 -0.0298794 0)
(0.818328 3.90613e-05 0)
(0.818076 -0.0156576 0)
(0.824887 0.00550882 0)
(0.84029 -0.00530645 0)
(0.822509 0.00885998 0)
(0.852956 0.00187807 0)
(0.81381 0.0105211 0)
(0.858692 0.00670887 0)
(0.8016 0.0110544 0)
(0.859765 0.00919417 0)
(0.787643 0.0108476 0)
(0.85787 0.0102615 0)
(0.7734 0.0101427 0)
(0.854609 0.0102241 0)
(0.759905 0.00915513 0)
(0.851202 0.00945892 0)
(0.747792 0.0080589 0)
(0.848425 0.00828904 0)
(0.737391 0.00698192 0)
(0.846694 0.00694962 0)
(0.72876 0.00600722 0)
(0.846106 0.00563089 0)
(0.721773 0.00520278 0)
(0.846643 0.00445073 0)
(0.716061 0.0046018 0)
(0.848165 0.00355263 0)
(0.711259 0.0041796 0)
(0.850353 0.00291589 0)
(0.707043 0.0039001 0)
(0.852919 0.00249987 0)
(0.70313 0.00374415 0)
(0.85563 0.0022651 0)
(0.699198 0.0037215 0)
(0.858276 0.00222279 0)
(0.694786 0.00384063 0)
(0.860568 0.00243504 0)
(0.689332 0.00405628 0)
(0.862079 0.00293849 0)
(0.682394 0.00427084 0)
(0.862281 0.00365019 0)
(0.673924 0.00432029 0)
(0.86079 0.00435126 0)
(0.664675 0.00378756 0)
(0.857843 0.00463893 0)
(0.85389 0.00363498 0)
(0.175418 -0.269389 0)
(0.0928266 -0.357677 0)
(0.34325 -0.234077 0)
(0.240148 -0.332146 0)
(0.483432 -0.18297 0)
(0.378287 -0.267323 0)
(0.595183 -0.135955 0)
(0.494807 -0.203672 0)
(0.68235 -0.0969639 0)
(0.586171 -0.149962 0)
(0.749296 -0.0658883 0)
(0.656265 -0.106754 0)
(0.800091 -0.0417902 0)
(0.70958 -0.072983 0)
(0.838308 -0.0236177 0)
(0.749975 -0.0473219 0)
(0.866823 -0.0103884 0)
(0.780581 -0.0283738 0)
(0.887872 -0.00123077 0)
(0.803881 -0.0147484 0)
(0.90351 0.00469097 0)
(0.821751 -0.00535128 0)
(0.915249 0.0080549 0)
(0.835796 0.000355031 0)
(0.924245 0.00943954 0)
(0.847294 0.00364731 0)
(0.932003 0.00942758 0)
(0.857225 0.00465502 0)
(0.939465 0.00849548 0)
(0.866345 0.00422908 0)
(0.947174 0.00705353 0)
(0.875189 0.00301367 0)
(0.955347 0.00544742 0)
(0.884096 0.00148797 0)
(0.963966 0.00395836 0)
(0.89322 8.21316e-06 0)
(0.973089 0.00273218 0)
(0.902578 -0.00136071 0)
(0.982494 0.00180348 0)
(0.912074 -0.00229633 0)
(0.991992 0.00117542 0)
(0.92156 -0.00285191 0)
(1.00143 0.000810648 0)
(0.930918 -0.00309437 0)
(1.0107 0.000704771 0)
(0.940114 -0.00310178 0)
(1.01965 0.000937819 0)
(0.949172 -0.00283898 0)
(1.02797 0.00162653 0)
(0.958051 -0.0021562 0)
(1.03515 0.00275744 0)
(0.966545 -0.000928947 0)
(1.04071 0.0040333 0)
(0.974302 0.000726699 0)
(1.04454 0.00495256 0)
(0.981039 0.00238214 0)
(1.04731 0.00488126 0)
(0.986636 0.00324944 0)
(0.992005 0.00295312 0)
(0.148417 -0.426879 0)
(0.072588 -0.503042 0)
(0.286204 -0.372324 0)
(0.196394 -0.463913 0)
(0.399726 -0.29449 0)
(0.301715 -0.373321 0)
(0.489991 -0.223197 0)
(0.391098 -0.285963 0)
(0.560712 -0.164217 0)
(0.460503 -0.212912 0)
(0.615525 -0.117312 0)
(0.514077 -0.154393 0)
(0.657805 -0.0810713 0)
(0.555187 -0.108861 0)
(0.690501 -0.0538349 0)
(0.586721 -0.0744123 0)
(0.716015 -0.0339084 0)
(0.611121 -0.0490133 0)
(0.736277 -0.019764 0)
(0.630318 -0.0307529 0)
(0.752886 -0.0102203 0)
(0.645773 -0.0181601 0)
(0.76691 -0.00439386 0)
(0.658513 -0.0102053 0)
(0.779553 -0.00143491 0)
(0.669624 -0.00564809 0)
(0.791044 -0.000515871 0)
(0.679595 -0.00359378 0)
(0.801698 -0.000956516 0)
(0.688692 -0.00323819 0)
(0.811861 -0.00217107 0)
(0.697122 -0.00394134 0)
(0.82182 -0.00365651 0)
(0.705052 -0.00516618 0)
(0.831769 -0.00500737 0)
(0.712601 -0.00648277 0)
(0.84155 -0.0060089 0)
(0.719761 -0.00759081 0)
(0.85111 -0.00661668 0)
(0.726431 -0.00824193 0)
(0.860378 -0.0068673 0)
(0.732571 -0.00848035 0)
(0.869414 -0.00686442 0)
(0.73819 -0.00845198 0)
(0.878399 -0.00664285 0)
(0.743419 -0.00830319 0)
(0.887497 -0.00607736 0)
(0.748503 -0.00798126 0)
(0.896713 -0.00496488 0)
(0.753653 -0.00724247 0)
(0.905813 -0.00327053 0)
(0.758919 -0.0058325 0)
(0.914583 -0.00132449 0)
(0.764179 -0.00388733 0)
(0.922931 0.000384909 0)
(0.769163 -0.00190596 0)
(0.930455 0.00143652 0)
(0.773498 -0.000524765 0)
(0.777408 0.000572024 0)
(0.118671 -0.549628 0)
(0.0522434 -0.619273 0)
(0.220786 -0.47486 0)
(0.146716 -0.561566 0)
(0.301545 -0.37455 0)
(0.212803 -0.448728 0)
(0.364987 -0.284534 0)
(0.271384 -0.3438 0)
(0.414512 -0.210694 0)
(0.314762 -0.256997 0)
(0.452816 -0.152216 0)
(0.348351 -0.187684 0)
(0.48242 -0.10721 0)
(0.374009 -0.133983 0)
(0.505507 -0.0734775 0)
(0.393542 -0.0935406 0)
(0.52376 -0.0487904 0)
(0.408595 -0.0637792 0)
(0.538333 -0.0312626 0)
(0.420403 -0.0422639 0)
(0.550166 -0.019519 0)
(0.429695 -0.0272858 0)
(0.560115 -0.0123206 0)
(0.436922 -0.0176971 0)
(0.568876 -0.00843057 0)
(0.442676 -0.0120894 0)
(0.576691 -0.00683525 0)
(0.447342 -0.00920376 0)
(0.583721 -0.00673272 0)
(0.451021 -0.00816502 0)
(0.590073 -0.00747729 0)
(0.453699 -0.00828817 0)
(0.595721 -0.00856266 0)
(0.455369 -0.00894038 0)
(0.600651 -0.00960632 0)
(0.455945 -0.00969929 0)
(0.604751 -0.0103127 0)
(0.45546 -0.0102024 0)
(0.607974 -0.0105723 0)
(0.453962 -0.0102464 0)
(0.610332 -0.0104667 0)
(0.451465 -0.00991205 0)
(0.611972 -0.0101521 0)
(0.448032 -0.00942441 0)
(0.61328 -0.00972807 0)
(0.443824 -0.00906046 0)
(0.614614 -0.00906683 0)
(0.439168 -0.00873502 0)
(0.61613 -0.00787348 0)
(0.434425 -0.00807947 0)
(0.61761 -0.006155 0)
(0.429879 -0.00662983 0)
(0.618697 -0.00440902 0)
(0.425822 -0.00445938 0)
(0.61949 -0.00305668 0)
(0.419766 -0.00231312 0)
(0.619515 -0.00172685 0)
(0.412169 -0.000537543 0)
(0.403553 0.00085265 0)
(0.083977 -0.639242 0)
(0.0307465 -0.701524 0)
(0.146066 -0.543832 0)
(0.0902353 -0.620942 0)
(0.190344 -0.426208 0)
(0.112035 -0.490071 0)
(0.223876 -0.32377 0)
(0.137477 -0.37437 0)
(0.249385 -0.240518 0)
(0.151713 -0.279704 0)
(0.268642 -0.174916 0)
(0.162681 -0.20442 0)
(0.283246 -0.124708 0)
(0.170208 -0.146375 0)
(0.294557 -0.0872524 0)
(0.175129 -0.102912 0)
(0.303463 -0.0598184 0)
(0.178247 -0.0709845 0)
(0.310181 -0.0401819 0)
(0.180103 -0.0475696 0)
(0.314866 -0.0268599 0)
(0.180695 -0.0308991 0)
(0.318132 -0.0183996 0)
(0.179547 -0.0201567 0)
(0.320246 -0.0133435 0)
(0.17682 -0.0136435 0)
(0.321088 -0.0107317 0)
(0.172681 -0.00980797 0)
(0.320579 -0.00985352 0)
(0.166942 -0.00780875 0)
(0.318794 -0.00984907 0)
(0.159175 -0.00706664 0)
(0.31558 -0.010048 0)
(0.15002 -0.00679275 0)
(0.311019 -0.0101687 0)
(0.139428 -0.00672344 0)
(0.305108 -0.0100294 0)
(0.127459 -0.00643728 0)
(0.297831 -0.00968229 0)
(0.113887 -0.00572067 0)
(0.289321 -0.00936312 0)
(0.0983956 -0.00474403 0)
(0.279677 -0.00916971 0)
(0.0810931 -0.00370673 0)
(0.26932 -0.00899674 0)
(0.0627371 -0.00306478 0)
(0.258881 -0.0086552 0)
(0.044362 -0.00283445 0)
(0.248928 -0.00770259 0)
(0.0267092 -0.00258615 0)
(0.23901 -0.00550089 0)
(0.0102473 -0.00128593 0)
(0.226828 -0.00222342 0)
(-0.00331777 0.00195009 0)
(0.211511 0.000699592 0)
(-0.0148287 0.00555506 0)
(0.196289 0.00237783 0)
(-0.0274995 0.00709743 0)
(-0.0404519 0.00625274 0)
(0.0439842 -0.690548 0)
(0.00692216 -0.744603 0)
(0.0614671 -0.574695 0)
(0.0256071 -0.637661 0)
(0.066447 -0.445073 0)
(0.00024112 -0.49472 0)
(0.0676685 -0.336095 0)
(-0.0107722 -0.375484 0)
(0.0661982 -0.248142 0)
(-0.0286577 -0.278395 0)
(0.0633114 -0.179319 0)
(-0.0440949 -0.201911 0)
(0.0599195 -0.127102 0)
(-0.0587106 -0.143497 0)
(0.0565063 -0.0885175 0)
(-0.072474 -0.100084 0)
(0.0530372 -0.0602721 0)
(-0.085494 -0.068178 0)
(0.0488523 -0.0396851 0)
(-0.0977961 -0.0442641 0)
(0.043315 -0.0256919 0)
(-0.110022 -0.0266286 0)
(0.0367522 -0.0173241 0)
(-0.12547 -0.0152149 0)
(0.0284092 -0.0122707 0)
(-0.145511 -0.00750966 0)
(0.0180139 -0.00871814 0)
(-0.165564 -0.00234573 0)
(0.00520502 -0.00623439 0)
(-0.185797 0.00116894 0)
(-0.00972375 -0.00479318 0)
(-0.206473 0.00314972 0)
(-0.0259671 -0.00412839 0)
(-0.227476 0.00406067 0)
(-0.0434444 -0.00352687 0)
(-0.248789 0.00467868 0)
(-0.0627492 -0.00230429 0)
(-0.270095 0.00585967 0)
(-0.0846686 -0.000269909 0)
(-0.291289 0.00791191 0)
(-0.109468 0.00195815 0)
(-0.31269 0.0103152 0)
(-0.136051 0.00352109 0)
(-0.334695 0.012055 0)
(-0.162707 0.00412131 0)
(-0.357147 0.0123662 0)
(-0.187993 0.0041327 0)
(-0.379198 0.0114582 0)
(-0.210981 0.0044686 0)
(-0.399917 0.0101009 0)
(-0.23043 0.00618403 0)
(-0.418603 0.00919399 0)
(-0.244723 0.00896065 0)
(-0.433539 0.00946997 0)
(-0.255248 0.0108008 0)
(-0.443153 0.0109617 0)
(-0.264158 0.0101494 0)
(-0.451793 0.0115665 0)
(-0.4587 0.0100396 0)
(-0.00497069 -0.696661 0)
(-0.0216661 -0.739735 0)
(-0.0333354 -0.561923 0)
(-0.049107 -0.610536 0)
(-0.0693578 -0.426662 0)
(-0.121972 -0.461086 0)
(-0.104453 -0.317787 0)
(-0.174806 -0.343489 0)
(-0.137308 -0.231254 0)
(-0.228333 -0.24915 0)
(-0.166981 -0.164935 0)
(-0.275346 -0.176121 0)
(-0.19335 -0.11578 0)
(-0.31765 -0.121121 0)
(-0.216806 -0.0802296 0)
(-0.356346 -0.0806501 0)
(-0.237878 -0.0539603 0)
(-0.392633 -0.051131 0)
(-0.258193 -0.0328261 0)
(-0.427108 -0.0282186 0)
(-0.281163 -0.0153875 0)
(-0.457834 -0.00891333 0)
(-0.309391 -0.00286155 0)
(-0.485248 0.00604063 0)
(-0.33991 0.0044723 0)
(-0.5128 0.0149283 0)
(-0.369583 0.00857188 0)
(-0.539282 0.0189547 0)
(-0.397559 0.0111313 0)
(-0.564689 0.0207771 0)
(-0.424253 0.0125515 0)
(-0.589053 0.0214176 0)
(-0.450023 0.0132681 0)
(-0.612885 0.0212794 0)
(-0.474652 0.0140564 0)
(-0.636109 0.0207468 0)
(-0.497545 0.0154018 0)
(-0.658289 0.0204419 0)
(-0.518417 0.0172153 0)
(-0.678862 0.0208931 0)
(-0.537661 0.0188018 0)
(-0.6977 0.0220016 0)
(-0.556007 0.019322 0)
(-0.715347 0.0229324 0)
(-0.573931 0.0184443 0)
(-0.732502 0.0227427 0)
(-0.591116 0.016541 0)
(-0.749187 0.0211713 0)
(-0.606805 0.0143932 0)
(-0.764777 0.0187598 0)
(-0.620381 0.0129116 0)
(-0.778549 0.0165095 0)
(-0.631589 0.0126408 0)
(-0.789959 0.0153663 0)
(-0.640167 0.0128653 0)
(-0.798869 0.0153686 0)
(-0.647016 0.0122368 0)
(-0.80594 0.0150016 0)
(-0.810221 0.013634 0)
(-0.055802 -0.652055 0)
(-0.056851 -0.68508 0)
(-0.136806 -0.504926 0)
(-0.133629 -0.533071 0)
(-0.218138 -0.371608 0)
(-0.256329 -0.385144 0)
(-0.295023 -0.268311 0)
(-0.356063 -0.273396 0)
(-0.364538 -0.188155 0)
(-0.448667 -0.187272 0)
(-0.426584 -0.127198 0)
(-0.529539 -0.122197 0)
(-0.482405 -0.0812474 0)
(-0.599991 -0.0737517 0)
(-0.534157 -0.0465752 0)
(-0.661744 -0.0377709 0)
(-0.583119 -0.0205058 0)
(-0.714208 -0.0115222 0)
(-0.627413 -0.00110074 0)
(-0.758907 0.00676755 0)
(-0.663149 0.0128959 0)
(-0.79602 0.0186472 0)
(-0.690069 0.0219872 0)
(-0.82523 0.026311 0)
(-0.712648 0.0269337 0)
(-0.84903 0.0315287 0)
(-0.734457 0.0291507 0)
(-0.871399 0.0346106 0)
(-0.756127 0.0298159 0)
(-0.892839 0.0359654 0)
(-0.777611 0.0295042 0)
(-0.913809 0.0361197 0)
(-0.798717 0.0285555 0)
(-0.934391 0.035382 0)
(-0.819244 0.0274509 0)
(-0.954488 0.0341387 0)
(-0.838961 0.0267975 0)
(-0.973893 0.0330014 0)
(-0.857655 0.026906 0)
(-0.99237 0.0325198 0)
(-0.875263 0.0274333 0)
(-1.00981 0.0326941 0)
(-0.891932 0.0275171 0)
(-1.02636 0.0328152 0)
(-0.907799 0.0264367 0)
(-1.04221 0.0319285 0)
(-0.922664 0.0241797 0)
(-1.05724 0.0295736 0)
(-0.936062 0.021446 0)
(-1.07093 0.026154 0)