/*--------------------------------*- C++ -*----------------------------------*\
| =========                 |                                                 |
| \\      /  F ield         | OpenFOAM: The Open Source CFD Toolbox           |
|  \\    /   O peration     | Version:  5.x                                   |
|   \\  /    A nd           | Web:      www.OpenFOAM.org                      |
|    \\/     M anipulation  |                                                 |
\*---------------------------------------------------------------------------*/
FoamFile
{
    version     2.0;
    format      ascii;
    class       volVectorField;
    location    "1.4";
    object      cellDisplacement;
}
// * * * * * * * * * * * * * * * * * * * * * * * * * * * * * * * * * * * * * //

dimensions      [0 1 0 0 0 0 0];

internalField   nonuniform List<vector> 
2790
(
(0.0136595 2.52324e-05 0)
(0.0388487 7.29242e-05 0)
(0.0600946 0.000116073 0)
(0.0777575 0.000156297 0)
(0.0922365 0.000194913 0)
(0.103885 0.0002329 0)
(0.11301 0.000271149 0)
(0.119872 0.000311057 0)
(0.124705 0.000351889 0)
(0.127719 0.000394844 0)
(0.129092 0.000440462 0)
(0.128981 0.000489248 0)
(0.127526 0.000541747 0)
(0.124853 0.000598556 0)
(0.121077 0.000660264 0)
(0.116304 0.00072751 0)
(0.110631 0.000801032 0)
(0.104155 0.000881694 0)
(0.096966 0.000970542 0)
(0.0891576 0.00106888 0)
(0.080824 0.0011783 0)
(0.0720629 0.00130066 0)
(0.0629793 0.0014383 0)
(0.053691 0.00159431 0)
(0.0443359 0.00177273 0)
(0.0350803 0.00197868 0)
(0.0261567 0.00222359 0)
(0.0179588 0.00253841 0)
(0.0111283 0.00295629 0)
(0.00726699 0.00347907 0)
(0.0136809 7.57484e-05 0)
(0.0389124 0.000218944 0)
(0.0601999 0.000348531 0)
(0.0779048 0.000469368 0)
(0.0924271 0.000585409 0)
(0.104122 0.000699557 0)
(0.1133 0.000814311 0)
(0.120216 0.000931535 0)
(0.125107 0.00105351 0)
(0.128189 0.001182 0)
(0.129637 0.00131842 0)
(0.129611 0.00146428 0)
(0.12825 0.00162119 0)
(0.125682 0.00179095 0)
(0.122025 0.00197532 0)
(0.117384 0.00217619 0)
(0.11186 0.00239574 0)
(0.105552 0.00263653 0)
(0.0985547 0.00290167 0)
(0.0909641 0.00319506 0)
(0.0828822 0.00352169 0)
(0.0744149 0.00388717 0)
(0.065679 0.00429888 0)
(0.0568104 0.00476714 0)
(0.0479827 0.00530715 0)
(0.0393942 0.00593512 0)
(0.0312903 0.00667626 0)
(0.0241199 0.00757012 0)
(0.0187765 0.00869965 0)
(0.017182 0.0100324 0)
(0.0137249 0.000126065 0)
(0.0390419 0.000364395 0)
(0.0604122 0.00058009 0)
(0.0782009 0.000781238 0)
(0.0928096 0.000974438 0)
(0.104595 0.00116442 0)
(0.113869 0.00135521 0)
(0.120895 0.00154917 0)
(0.125911 0.00175192 0)
(0.12913 0.00196541 0)
(0.13073 0.00219199 0)
(0.130872 0.00243412 0)
(0.129699 0.0026944 0)
(0.127342 0.00297601 0)
(0.123921 0.00328171 0)
(0.119546 0.00361457 0)
(0.114322 0.00397812 0)
(0.108351 0.00437648 0)
(0.101735 0.00481454 0)
(0.0945776 0.00529846 0)
(0.0869949 0.00583691 0)
(0.0791068 0.00643829 0)
(0.0710465 0.0071138 0)
(0.0629682 0.00787888 0)
(0.0551263 0.00876538 0)
(0.0477941 0.00979526 0)
(0.0413494 0.0109992 0)
(0.0362735 0.0124025 0)
(0.0334365 0.0140518 0)
(0.0353856 0.0158806 0)
(0.0137902 0.00017577 0)
(0.0392346 0.000508047 0)
(0.060728 0.000808725 0)
(0.0786416 0.00108908 0)
(0.0933785 0.00135838 0)
(0.105299 0.001623 0)
(0.11472 0.00188882 0)
(0.12191 0.00216036 0)
(0.127111 0.00244298 0)
(0.130532 0.00274023 0)
(0.132358 0.00305552 0)
(0.132751 0.00339215 0)
(0.131857 0.00375353 0)
(0.129814 0.00414461 0)
(0.126745 0.00456887 0)
(0.122765 0.00503044 0)
(0.117987 0.00553404 0)
(0.11252 0.00608521 0)
(0.106475 0.00669016 0)
(0.0999598 0.00735638 0)
(0.0931253 0.00809837 0)
(0.0861111 0.00892519 0)
(0.0790834 0.0098511 0)
(0.0722121 0.010898 0)
(0.0657728 0.0120896 0)
(0.0601655 0.0134524 0)
(0.0559632 0.0150292 0)
(0.0539604 0.0168437 0)
(0.054886 0.018878 0)
(0.0608916 0.0208791 0)
(0.0138763 0.000224656 0)
(0.0394882 0.000649311 0)
(0.061144 0.00103349 0)
(0.0792231 0.00139159 0)
(0.0941294 0.00173571 0)
(0.106227 0.00207338 0)
(0.115843 0.00241263 0)
(0.12325 0.00275953 0)
(0.128691 0.00311991 0)
(0.132378 0.00349856 0)
(0.1345 0.0038999 0)
(0.135224 0.00432796 0)
(0.134696 0.00478627 0)
(0.133065 0.00528289 0)
(0.13046 0.00582121 0)
(0.127002 0.00640628 0)
(0.122812 0.00704406 0)
(0.118013 0.00774169 0)
(0.11273 0.00850674 0)
(0.107081 0.00935008 0)
(0.101227 0.0102841 0)
(0.0953485 0.0113201 0)
(0.0896426 0.0124752 0)
(0.0843729 0.0137729 0)
(0.0798495 0.0152278 0)
(0.0765234 0.0168674 0)
(0.0750273 0.0187139 0)
(0.0765922 0.0207871 0)
(0.0821813 0.0230086 0)
(0.0925777 0.0249516 0)
(0.0139825 0.000272745 0)
(0.0398014 0.00078827 0)
(0.0616578 0.00125455 0)
(0.0799441 0.00168895 0)
(0.0950571 0.00210501 0)
(0.107372 0.00251369 0)
(0.117229 0.00292436 0)
(0.124904 0.00334419 0)
(0.130639 0.00377983 0)
(0.134654 0.00423709 0)
(0.137142 0.00472146 0)
(0.138275 0.00523785 0)
(0.138211 0.00579241 0)
(0.137092 0.00639076 0)
(0.13506 0.00703806 0)
(0.132245 0.00774047 0)
(0.128778 0.008505 0)
(0.1248 0.00934076 0)
(0.120448 0.0102562 0)
(0.115862 0.0112621 0)
(0.111235 0.0123714 0)
(0.10677 0.0135956 0)
(0.102703 0.0149516 0)
(0.0993383 0.016458 0)
(0.0970895 0.0181284 0)
(0.0966042 0.0199812 0)
(0.098468 0.0220087 0)
(0.103829 0.0241701 0)
(0.114162 0.0263479 0)
(0.129083 0.028103 0)
(0.0141083 0.000319832 0)
(0.0401722 0.000924314 0)
(0.0622644 0.00147089 0)
(0.0807826 0.00197953 0)
(0.0961428 0.00246575 0)
(0.108728 0.00294389 0)
(0.118875 0.00342392 0)
(0.126865 0.00391427 0)
(0.13295 0.00442245 0)
(0.137351 0.00495521 0)
(0.140271 0.0055192 0)
(0.141887 0.0061205 0)
(0.142368 0.00676657 0)
(0.141852 0.00746032 0)
(0.140497 0.00821 0)
(0.138444 0.00902194 0)
(0.135826 0.00990335 0)
(0.132819 0.0108668 0)
(0.129578 0.0119194 0)
(0.126256 0.0130738 0)
(0.123063 0.0143411 0)
(0.120255 0.0157309 0)
(0.118121 0.0172583 0)
(0.117049 0.0189372 0)
(0.117464 0.0207718 0)
(0.120055 0.022759 0)
(0.125748 0.0248707 0)
(0.135223 0.0270011 0)
(0.150228 0.0290151 0)
(0.16924 0.0305143 0)
(0.0142522 0.000365484 0)
(0.0405958 0.00105617 0)
(0.0629575 0.0016805 0)
(0.0817454 0.00226115 0)
(0.0973925 0.00281652 0)
(0.110286 0.00336187 0)
(0.120764 0.00390875 0)
(0.129116 0.00446675 0)
(0.1356 0.00504418 0)
(0.140443 0.00564857 0)
(0.143856 0.00628787 0)
(0.146022 0.00696844 0)
(0.147112 0.00769701 0)
(0.147279 0.0084787 0)
(0.146699 0.00932356 0)
(0.145521 0.0102371 0)
(0.143902 0.0112296 0)
(0.142002 0.0123099 0)
(0.140021 0.0134867 0)
(0.138145 0.014772 0)
(0.136615 0.0161751 0)
(0.135714 0.0177049 0)
(0.135782 0.0193737 0)
(0.137249 0.0211851 0)
(0.140708 0.0231342 0)
(0.146702 0.0251905 0)
(0.15634 0.027304 0)
(0.170237 0.0293506 0)
(0.189682 0.0311653 0)
(0.212174 0.0324377 0)
(0.0144128 0.000409528 0)
(0.0410689 0.00118336 0)
(0.0637321 0.00188262 0)
(0.0828235 0.00253263 0)
(0.0987904 0.00315419 0)
(0.112026 0.0037638 0)
(0.122873 0.00437435 0)
(0.131629 0.00499646 0)
(0.138558 0.00563919 0)
(0.143891 0.00631046 0)
(0.147854 0.0070202 0)
(0.150632 0.00777441 0)
(0.152407 0.00857996 0)
(0.153354 0.00944536 0)
(0.153639 0.0103779 0)
(0.153432 0.0113842 0)
(0.152923 0.0124757 0)
(0.152256 0.0136567 0)
(0.151688 0.0149406 0)
(0.151427 0.0163384 0)
(0.151735 0.017857 0)
(0.152949 0.0195013 0)
(0.155501 0.0212802 0)
(0.159803 0.0231867 0)
(0.166509 0.0252034 0)
(0.176329 0.0272916 0)
(0.190024 0.029364 0)
(0.20841 0.0313054 0)
(0.231896 0.0329389 0)
(0.257405 0.0340477 0)
(0.014589 0.000451804 0)
(0.0415878 0.00130542 0)
(0.064582 0.00207653 0)
(0.0840078 0.00279293 0)
(0.100325 0.00347757 0)
(0.113935 0.00414824 0)
(0.125187 0.00481901 0)
(0.134385 0.0055015 0)
(0.141801 0.00620549 0)
(0.147684 0.00694101 0)
(0.152251 0.0077163 0)
(0.155699 0.00853815 0)
(0.158222 0.00941465 0)
(0.160019 0.0103555 0)
(0.161245 0.0113647 0)
(0.162087 0.012451 0)
(0.16277 0.0136257 0)
(0.163475 0.0148966 0)
(0.164447 0.0162731 0)
(0.165949 0.0177629 0)
(0.168276 0.019371 0)
(0.171812 0.0211039 0)
(0.176994 0.0229604 0)
(0.184397 0.0249289 0)
(0.194569 0.0269794 0)
(0.208396 0.0290641 0)
(0.226295 0.0310792 0)
(0.24914 0.0329221 0)
(0.276299 0.0344127 0)
(0.304513 0.0353935 0)
(0.0147799 0.000492353 0)
(0.0421506 0.00142248 0)
(0.0655047 0.00226243 0)
(0.0852942 0.0030423 0)
(0.101993 0.00378697 0)
(0.116008 0.0045155 0)
(0.127697 0.00524299 0)
(0.137375 0.00598201 0)
(0.145322 0.00674358 0)
(0.151795 0.00753823 0)
(0.157005 0.00837234 0)
(0.161171 0.00925483 0)
(0.164489 0.0101934 0)
(0.167178 0.0111984 0)
(0.169416 0.0122744 0)
(0.171406 0.0134314 0)
(0.17337 0.0146782 0)
(0.175532 0.0160216 0)
(0.178155 0.0174687 0)
(0.181528 0.0190283 0)
(0.185989 0.0207037 0)
(0.192018 0.0224962 0)
(0.20002 0.0243982 0)
(0.210616 0.0263929 0)
(0.224464 0.0284468 0)
(0.242268 0.0304987 0)
(0.264504 0.0324545 0)
(0.291673 0.0342103 0)
(0.322346 0.0355948 0)
(0.353062 0.0364623 0)
(0.0149841 0.000531028 0)
(0.042753 0.0015341 0)
(0.0664921 0.00243959 0)
(0.0866713 0.0032797 0)
(0.103778 0.00408114 0)
(0.118227 0.00486403 0)
(0.130383 0.00564437 0)
(0.14057 0.00643552 0)
(0.149078 0.00724943 0)
(0.156163 0.00809566 0)
(0.162051 0.00898198 0)
(0.16698 0.00991819 0)
(0.17116 0.0109129 0)
(0.174797 0.0119738 0)
(0.1781 0.0131065 0)
(0.181287 0.0143204 0)
(0.184599 0.0156224 0)
(0.188286 0.0170205 0)
(0.192631 0.0185205 0)
(0.197971 0.020126 0)
(0.204686 0.0218412 0)
(0.213226 0.0236615 0)
(0.224158 0.0255752 0)
(0.23802 0.0275607 0)
(0.255603 0.029583 0)
(0.277386 0.0315757 0)
(0.303946 0.0334626 0)
(0.335258 0.0351379 0)
(0.36935 0.0364405 0)
(0.402513 0.0371837 0)
(0.0151993 0.000567497 0)
(0.0433877 0.00163931 0)
(0.0675316 0.00260642 0)
(0.0881214 0.00350299 0)
(0.105658 0.00435746 0)
(0.120563 0.0051908 0)
(0.133209 0.00601969 0)
(0.143928 0.00685813 0)
(0.153026 0.00771927 0)
(0.160755 0.00861169 0)
(0.16737 0.00954564 0)
(0.1731 0.0105295 0)
(0.178177 0.0115715 0)
(0.182788 0.0126766 0)
(0.187194 0.0138536 0)
(0.191623 0.0151109 0)
(0.196323 0.0164543 0)
(0.201576 0.0178884 0)
(0.207681 0.0194169 0)
(0.215003 0.0210442 0)
(0.224014 0.0227699 0)
(0.235116 0.0245833 0)
(0.248908 0.0264704 0)
(0.266051 0.0284068 0)
(0.287211 0.0303533 0)
(0.312908 0.0322499 0)
(0.343705 0.0340366 0)
(0.378843 0.0356168 0)
(0.41619 0.0368391 0)
(0.451939 0.0373897 0)
(0.015424 0.000601657 0)
(0.0440498 0.00173782 0)
(0.0686147 0.00276245 0)
(0.0896327 0.0037115 0)
(0.107621 0.0046152 0)
(0.123002 0.00549498 0)
(0.136155 0.00636807 0)
(0.14744 0.00725034 0)
(0.157154 0.00815384 0)
(0.165556 0.00908748 0)
(0.17292 0.0100621 0)
(0.17946 0.0110839 0)
(0.185438 0.0121621 0)
(0.191072 0.0133033 0)
(0.196609 0.0145143 0)
(0.202293 0.0158004 0)
(0.208392 0.0171662 0)
(0.215217 0.0186167 0)
(0.22308 0.0201525 0)
(0.232415 0.0217755 0)
(0.243606 0.0234789 0)
(0.257208 0.0252481 0)
(0.273742 0.0270656 0)
(0.293966 0.0289021 0)
(0.318388 0.0307132 0)
(0.347673 0.0324488 0)
(0.382155 0.0340499 0)
(0.420555 0.0354464 0)
(0.460865 0.0365139 0)
(0.499614 0.0366653 0)
(0.0156568 0.000633435 0)
(0.0447362 0.00182944 0)
(0.0697347 0.00290734 0)
(0.0912016 0.0039056 0)
(0.109662 0.00485491 0)
(0.125538 0.00577721 0)
(0.139226 0.00669088 0)
(0.15109 0.00761205 0)
(0.161426 0.00855168 0)
(0.170509 0.00951972 0)
(0.178623 0.0105266 0)
(0.186006 0.01158 0)
(0.19291 0.0126873 0)
(0.199568 0.0138536 0)
(0.206232 0.015084 0)
(0.213168 0.0163842 0)
(0.220649 0.0177576 0)
(0.229034 0.0192049 0)
(0.23863 0.020725 0)
(0.249859 0.0223141 0)
(0.263149 0.0239609 0)
(0.279014 0.0256472 0)
(0.298082 0.027347 0)
(0.320915 0.029022 0)
(0.348074 0.0306173 0)
(0.380169 0.0320729 0)
(0.41698 0.0333117 0)
(0.457326 0.0342449 0)
(0.499444 0.034777 0)
(0.542115 0.0338718 0)
(0.0129352 -0.00336429 0)
(0.0288492 -0.00382083 0)
(0.0602286 -0.00394415 0)
(0.105396 -0.00386994 0)
(0.157656 -0.00364887 0)
(0.209115 -0.00335789 0)
(0.254471 -0.00304694 0)
(0.291696 -0.00274264 0)
(0.320867 -0.00245694 0)
(0.342908 -0.00219377 0)
(0.358884 -0.00195549 0)
(0.369761 -0.00174508 0)
(0.376249 -0.00155304 0)
(0.378884 -0.00138075 0)
(0.378099 -0.0012286 0)
(0.37419 -0.00108983 0)
(0.367353 -0.000966755 0)
(0.357729 -0.000854416 0)
(0.345385 -0.000753905 0)
(0.330351 -0.000660937 0)
(0.31264 -0.000579163 0)
(0.292177 -0.000505278 0)
(0.268927 -0.000437561 0)
(0.242839 -0.000374621 0)
(0.213852 -0.000315214 0)
(0.181904 -0.00025817 0)
(0.146929 -0.000202355 0)
(0.108865 -0.000146636 0)
(0.0676698 -8.98543e-05 0)
(0.0231488 -3.05554e-05 0)
(0.0220539 -0.00991569 0)
(0.0397186 -0.0110504 0)
(0.0717598 -0.0113483 0)
(0.116498 -0.0110894 0)
(0.167563 -0.0104659 0)
(0.217548 -0.009656 0)
(0.261456 -0.00878685 0)
(0.297397 -0.0079301 0)
(0.325484 -0.00711962 0)
(0.346632 -0.00636822 0)
(0.361897 -0.00568502 0)
(0.372205 -0.00508216 0)
(0.378223 -0.00452911 0)
(0.380488 -0.00403093 0)
(0.379417 -0.0035917 0)
(0.375274 -0.00318848 0)
(0.368259 -0.00283174 0)
(0.358492 -0.00250446 0)
(0.346043 -0.00221236 0)
(0.330916 -0.00194615 0)
(0.313109 -0.0017081 0)
(0.292575 -0.00149203 0)
(0.269267 -0.00129341 0)
(0.243128 -0.00110838 0)
(0.214098 -0.000933355 0)
(0.182109 -0.000764981 0)
(0.147096 -0.000599962 0)
(0.108994 -0.000434983 0)
(0.0677561 -0.000266661 0)
(0.0231811 -9.07073e-05 0)
(0.0392394 -0.0158371 0)
(0.0598461 -0.0172837 0)
(0.0929941 -0.0176428 0)
(0.137029 -0.0172037 0)
(0.186087 -0.0162729 0)
(0.233439 -0.0150775 0)
(0.274677 -0.0137812 0)
(0.308209 -0.0124866 0)
(0.334244 -0.0112484 0)
(0.353705 -0.0100898 0)
(0.367642 -0.00903961 0)
(0.376858 -0.00809408 0)
(0.381983 -0.00722814 0)
(0.383558 -0.00645134 0)
(0.381937 -0.00575541 0)
(0.377357 -0.00512106 0)
(0.369996 -0.00455115 0)
(0.359959 -0.00403451 0)
(0.347282 -0.00357103 0)
(0.331969 -0.00315195 0)
(0.314001 -0.00277256 0)
(0.293334 -0.00242616 0)
(0.269913 -0.00210642 0)
(0.243678 -0.00180748 0)
(0.214561 -0.00152384 0)
(0.182495 -0.00125021 0)
(0.147408 -0.000981361 0)
(0.10923 -0.000712015 0)
(0.0679109 -0.000436744 0)
(0.0232375 -0.000148618 0)
(0.0637996 -0.0209904 0)
(0.0874451 -0.0224029 0)
(0.121832 -0.0227251 0)
(0.165025 -0.0221816 0)
(0.211491 -0.0210483 0)
(0.255381 -0.0195909 0)
(0.293016 -0.0179877 0)
(0.323246 -0.0163641 0)
(0.346459 -0.0147967 0)
(0.363631 -0.013324 0)
(0.375697 -0.0119769 0)
(0.383367 -0.0107477 0)
(0.387275 -0.00962579 0)
(0.387882 -0.00861328 0)
(0.385482 -0.00769526 0)
(0.380299 -0.00686557 0)
(0.372452 -0.00611292 0)
(0.362022 -0.00543447 0)
(0.349023 -0.00482229 0)
(0.333444 -0.00426742 0)
(0.315252 -0.00376214 0)
(0.294396 -0.00329845 0)
(0.270816 -0.00286857 0)
(0.244442 -0.00246509 0)
(0.215204 -0.00208091 0)
(0.183027 -0.00170911 0)
(0.147834 -0.00134281 0)
(0.10955 -0.000974989 0)
(0.0681174 -0.000598393 0)
(0.0233115 -0.000203692 0)
(0.0947037 -0.0252517 0)
(0.12096 -0.0264666 0)
(0.156464 -0.0267123 0)
(0.198589 -0.0261088 0)
(0.242043 -0.0248625 0)
(0.28187 -0.0232317 0)
(0.315213 -0.0214144 0)
(0.341493 -0.0195545 0)
(0.361335 -0.0177441 0)
(0.375756 -0.0160454 0)
(0.385513 -0.0144659 0)
(0.39133 -0.0130176 0)
(0.39378 -0.011699 0)
(0.393197 -0.0104931 0)
(0.38986 -0.00939799 0)
(0.383934 -0.00840644 0)
(0.375495 -0.00750759 0)
(0.364579 -0.00669366 0)
(0.351181 -0.00595554 0)
(0.33527 -0.0052836 0)
(0.3168 -0.00466864 0)
(0.295709 -0.00410152 0)
(0.271928 -0.00357336 0)
(0.245382 -0.00307556 0)
(0.215991 -0.00259975 0)
(0.183674 -0.00213771 0)
(0.148349 -0.00168115 0)
(0.109934 -0.00122157 0)
(0.0683627 -0.000750149 0)
(0.0233985 -0.000255426 0)
(0.13066 -0.0286064 0)
(0.159028 -0.0296159 0)
(0.195426 -0.0298008 0)
(0.236144 -0.0291483 0)
(0.276195 -0.0278259 0)
(0.311438 -0.0260717 0)
(0.339989 -0.0241039 0)
(0.361897 -0.0220826 0)
(0.378035 -0.0201078 0)
(0.389347 -0.018244 0)
(0.396543 -0.0165043 0)
(0.400331 -0.0149021 0)
(0.401134 -0.0134326 0)
(0.399246 -0.0120862 0)
(0.394873 -0.0108591 0)
(0.388112 -0.00974309 0)
(0.378996 -0.00872828 0)
(0.367524 -0.00780515 0)
(0.353665 -0.0069638 0)
(0.337371 -0.00619411 0)
(0.318579 -0.00548608 0)
(0.297216 -0.00482985 0)
(0.273203 -0.00421579 0)
(0.246455 -0.00363444 0)
(0.216887 -0.00307652 0)
(0.184408 -0.00253276 0)
(0.14893 -0.00199378 0)
(0.110364 -0.00144984 0)
(0.0686347 -0.000890811 0)
(0.0234943 -0.000303403 0)
(0.170458 -0.0312 0)
(0.200597 -0.0320595 0)
(0.237577 -0.032189 0)
(0.276443 -0.0314718 0)
(0.312548 -0.0300574 0)
(0.342716 -0.0281924 0)
(0.366127 -0.0261126 0)
(0.383424 -0.0239829 0)
(0.395683 -0.0219117 0)
(0.403712 -0.0199464 0)
(0.408274 -0.0181085 0)
(0.40993 -0.0164065 0)
(0.40902 -0.014838 0)
(0.40578 -0.0133974 0)
(0.400317 -0.0120785 0)
(0.392666 -0.0108731 0)
(0.38282 -0.00977211 0)
(0.370745 -0.00876552 0)
(0.356384 -0.00784325 0)
(0.33967 -0.00699501 0)
(0.320524 -0.00621054 0)
(0.298861 -0.00547966 0)
(0.274592 -0.0047923 0)
(0.247621 -0.0041385 0)
(0.217856 -0.00350833 0)
(0.185199 -0.00289181 0)
(0.149554 -0.00227869 0)
(0.110823 -0.00165829 0)
(0.0689227 -0.00101943 0)
(0.023595 -0.000347294 0)
(0.213209 -0.033256 0)
(0.244909 -0.0339988 0)
(0.281988 -0.0340329 0)
(0.318315 -0.0331912 0)
(0.349795 -0.0316426 0)
(0.374429 -0.0296626 0)
(0.39249 -0.0274972 0)
(0.405123 -0.0253051 0)
(0.413421 -0.0231844 0)
(0.418202 -0.021177 0)
(0.420168 -0.0192982 0)
(0.419723 -0.0175474 0)
(0.417149 -0.0159281 0)
(0.412562 -0.0144347 0)
(0.405996 -0.0130609 0)
(0.397436 -0.0117989 0)
(0.386837 -0.0106399 0)
(0.374134 -0.00957451 0)
(0.359248 -0.00859278 0)
(0.342091 -0.00768468 0)
(0.322571 -0.00684007 0)
(0.30059 -0.0060488 0)
(0.276047 -0.00530071 0)
(0.24884 -0.00458561 0)
(0.218866 -0.00389324 0)
(0.186019 -0.00321312 0)
(0.150197 -0.00253445 0)
(0.111293 -0.00184582 0)
(0.0692164 -0.0011353 0)
(0.0236971 -0.000386855 0)
(0.258362 -0.0349524 0)
(0.291379 -0.0355562 0)
(0.327825 -0.0354183 0)
(0.360605 -0.0343639 0)
(0.386641 -0.0326287 0)
(0.405363 -0.0305297 0)
(0.418019 -0.0283035 0)
(0.426081 -0.026095 0)
(0.43054 -0.0239754 0)
(0.432262 -0.0219752 0)
(0.43179 -0.0200991 0)
(0.429409 -0.0183473 0)
(0.425258 -0.0167192 0)
(0.419373 -0.0152105 0)
(0.411731 -0.0138153 0)
(0.402274 -0.0125265 0)
(0.390924 -0.0113358 0)
(0.377588 -0.0102346 0)
(0.362169 -0.0092137 0)
(0.34456 -0.00826352 0)
(0.324656 -0.00737442 0)
(0.302348 -0.0065366 0)
(0.277524 -0.00574008 0)
(0.250073 -0.00497471 0)
(0.219883 -0.00423013 0)
(0.186843 -0.00349566 0)
(0.150839 -0.00276014 0)
(0.11176 -0.00201173 0)
(0.0695063 -0.00123798 0)
(0.0237974 -0.000421925 0)
(0.305608 -0.036358 0)
(0.339518 -0.0367758 0)
(0.374167 -0.0363622 0)
(0.40209 -0.0349979 0)
(0.421781 -0.0330335 0)
(0.434376 -0.0308265 0)
(0.441795 -0.0285773 0)
(0.445486 -0.0263965 0)
(0.446494 -0.0243279 0)
(0.445505 -0.0223773 0)
(0.442868 -0.0205457 0)
(0.438728 -0.0188311 0)
(0.433124 -0.0172308 0)
(0.426025 -0.0157402 0)
(0.417363 -0.0143537 0)
(0.407044 -0.0130648 0)
(0.394965 -0.0118664 0)
(0.381011 -0.0107507 0)
(0.365065 -0.00970934 0)
(0.347008 -0.00873371 0)
(0.326721 -0.00781491 0)
(0.304085 -0.00694372 0)
(0.278979 -0.0061106 0)
(0.251284 -0.00530567 0)
(0.220879 -0.00451871 0)
(0.187644 -0.00373902 0)
(0.151461 -0.00295535 0)
(0.11221 -0.00215567 0)
(0.069784 -0.00132721 0)
(0.023893 -0.000452419 0)
(0.354734 -0.0374763 0)
(0.388813 -0.0376542 0)
(0.419736 -0.0368183 0)
(0.44119 -0.0350522 0)
(0.45386 -0.0328554 0)
(0.460414 -0.0305764 0)
(0.46297 -0.0283598 0)
(0.462861 -0.0262581 0)
(0.460959 -0.024278 0)
(0.45767 -0.0224159 0)
(0.453162 -0.0206665 0)
(0.447471 -0.0190243 0)
(0.440562 -0.0174843 0)
(0.432357 -0.0160413 0)
(0.422752 -0.0146902 0)
(0.411628 -0.0134252 0)
(0.398859 -0.0122405 0)
(0.384315 -0.0111294 0)
(0.367862 -0.0100848 0)
(0.34937 -0.00909896 0)
(0.32871 -0.00816416 0)
(0.305754 -0.00727196 0)
(0.280373 -0.00641345 0)
(0.25244 -0.00557924 0)
(0.221825 -0.00475938 0)
(0.188402 -0.00394339 0)
(0.152045 -0.00312015 0)
(0.11263 -0.00227761 0)
(0.0700414 -0.00140296 0)
(0.0239812 -0.000478324 0)
(0.405574 -0.0383038 0)
(0.438288 -0.0381187 0)
(0.462618 -0.0366657 0)
(0.475995 -0.0344471 0)
(0.481527 -0.0320774 0)
(0.482628 -0.0298045 0)
(0.481114 -0.0276802 0)
(0.477999 -0.0257016 0)
(0.47376 -0.0238533 0)
(0.468579 -0.0221203 0)
(0.462498 -0.0204901 0)
(0.455476 -0.0189531 0)
(0.447427 -0.0175026 0)
(0.438239 -0.0161333 0)
(0.427783 -0.0148408 0)
(0.415923 -0.0136207 0)
(0.402518 -0.0124685 0)
(0.387425 -0.0113791 0)
(0.370495 -0.0103464 0)
(0.351589 -0.00936419 0)
(0.330574 -0.0084259 0)
(0.307313 -0.0075241 0)
(0.28167 -0.00665069 0)
(0.25351 -0.00579688 0)
(0.222696 -0.00495318 0)
(0.189094 -0.00410948 0)
(0.152575 -0.00325499 0)
(0.113008 -0.00237785 0)
(0.0702715 -0.0014654 0)
(0.0240596 -0.00049969 0)
(0.457961 -0.0388319 0)
(0.485588 -0.0379672 0)
(0.500136 -0.0356937 0)
(0.504597 -0.0330885 0)
(0.503967 -0.0306704 0)
(0.500792 -0.028495 0)
(0.496255 -0.0265346 0)
(0.49086 -0.0247429 0)
(0.484813 -0.0230802 0)
(0.478127 -0.0215213 0)
(0.470761 -0.0200468 0)
(0.462627 -0.0186454 0)
(0.453607 -0.0173101 0)
(0.443568 -0.0160369 0)
(0.432364 -0.0148229 0)
(0.419848 -0.0136656 0)
(0.405869 -0.0125621 0)
(0.390277 -0.0115092 0)
(0.372907 -0.0105018 0)
(0.353615 -0.00953529 0)
(0.332268 -0.00860473 0)
(0.308722 -0.00770373 0)
(0.282836 -0.00682507 0)
(0.254468 -0.00596074 0)
(0.22347 -0.00510171 0)
(0.189703 -0.00423844 0)
(0.153037 -0.00336067 0)
(0.113333 -0.00245692 0)
(0.0704681 -0.00151484 0)
(0.0241261 -0.000516625 0)
(0.510008 -0.0388753 0)
(0.525669 -0.0367463 0)
(0.529059 -0.0335812 0)
(0.526315 -0.0307883 0)
(0.521244 -0.0284988 0)
(0.515154 -0.0265862 0)
(0.508512 -0.024919 0)
(0.501464 -0.0234061 0)
(0.494049 -0.0219963 0)
(0.486213 -0.0206587 0)
(0.477839 -0.0193737 0)
(0.46881 -0.0181334 0)
(0.458993 -0.0169344 0)
(0.44824 -0.0157753 0)
(0.436399 -0.0146557 0)
(0.423314 -0.0135754 0)
(0.408832 -0.0125339 0)
(0.392809 -0.0115301 0)
(0.375052 -0.0105595 0)
(0.355403 -0.00961888 0)
(0.333755 -0.008706 0)
(0.30995 -0.0078151 0)
(0.283843 -0.00693995 0)
(0.255293 -0.00607352 0)
(0.224131 -0.00520706 0)
(0.190212 -0.00433177 0)
(0.153416 -0.00343831 0)
(0.113598 -0.00251561 0)
(0.0706259 -0.00155175 0)
(0.0241791 -0.000529288 0)
(0.551291 -0.0375405 0)
(0.554913 -0.0330072 0)
(0.548471 -0.0293706 0)
(0.5412 -0.0270875 0)
(0.533587 -0.0254486 0)
(0.525806 -0.0241071 0)
(0.517887 -0.0229045 0)
(0.509794 -0.0217686 0)
(0.501454 -0.0206681 0)
(0.492789 -0.0195847 0)
(0.483668 -0.0185128 0)
(0.473958 -0.0174517 0)
(0.463514 -0.0164037 0)
(0.452187 -0.0153716 0)
(0.439821 -0.0143582 0)
(0.42626 -0.013366 0)
(0.411347 -0.0123964 0)
(0.394926 -0.0114502 0)
(0.376832 -0.0105259 0)
(0.356899 -0.00962163 0)
(0.334992 -0.00873525 0)
(0.310961 -0.00786264 0)
(0.284662 -0.00699881 0)
(0.255968 -0.0061382 0)
(0.224668 -0.00527178 0)
(0.190605 -0.00439126 0)
(0.153702 -0.00348924 0)
(0.113793 -0.00255486 0)
(0.0707405 -0.0015767 0)
(0.0242174 -0.000537884 0)
(0.0159013 0.000663434 0)
(0.045459 0.00191597 0)
(0.0709291 0.00304475 0)
(0.0928646 0.00408907 0)
(0.111804 0.00508003 0)
(0.128196 0.00604136 0)
(0.142436 0.00699137 0)
(0.154889 0.00794575 0)
(0.165871 0.00891662 0)
(0.175673 0.00991463 0)
(0.184571 0.0109489 0)
(0.192812 0.0120259 0)
(0.20065 0.0131517 0)
(0.208343 0.0143324 0)
(0.216147 0.0155718 0)
(0.224332 0.016871 0)
(0.233197 0.0182338 0)
(0.243069 0.0196582 0)
(0.254322 0.0211369 0)
(0.267314 0.0226629 0)
(0.282549 0.0242187 0)
(0.30044 0.0257788 0)
(0.321619 0.0273057 0)
(0.346464 0.0287468 0)
(0.375552 0.0300255 0)
(0.409009 0.031034 0)
(0.446125 0.0315958 0)
(0.485596 0.03134 0)
(0.525135 0.0293735 0)
(0.560036 0.0234231 0)
(0.0161585 0.000691695 0)
(0.0462202 0.00199748 0)
(0.0721824 0.00317381 0)
(0.0946038 0.00426032 0)
(0.114047 0.00528959 0)
(0.130981 0.00628648 0)
(0.145795 0.00726868 0)
(0.158876 0.00825302 0)
(0.170543 0.0092514 0)
(0.181083 0.0102732 0)
(0.190775 0.0113265 0)
(0.199889 0.0124189 0)
(0.208685 0.0135555 0)
(0.217418 0.0147394 0)
(0.226346 0.0159725 0)
(0.235765 0.0172565 0)
(0.24597 0.0185904 0)
(0.257286 0.0199688 0)
(0.270048 0.0213812 0)
(0.284682 0.0228136 0)
(0.301545 0.0242426 0)
(0.321131 0.0256315 0)
(0.343794 0.0269329 0)
(0.369907 0.0280728 0)
(0.399704 0.0289456 0)
(0.432728 0.0293995 0)
(0.467959 0.0291806 0)
(0.503516 0.0278732 0)
(0.5356 0.025014 0)
(0.5605 0.0202771 0)
(0.0164246 0.000717642 0)
(0.0470072 0.00207224 0)
(0.0734764 0.00329197 0)
(0.0963988 0.00441671 0)
(0.116373 0.00548109 0)
(0.133874 0.00650984 0)
(0.14929 0.00752056 0)
(0.163011 0.0085298 0)
(0.175362 0.00954871 0)
(0.18665 0.0105877 0)
(0.197156 0.0116542 0)
(0.207142 0.0127533 0)
(0.21687 0.0138888 0)
(0.22662 0.0150642 0)
(0.236643 0.0162797 0)
(0.24724 0.0175323 0)
(0.258685 0.0188196 0)
(0.271331 0.0201317 0)
(0.285456 0.0214534 0)
(0.301439 0.0227647 0)
(0.319601 0.0240354 0)
(0.340345 0.0252183 0)
(0.36382 0.0262546 0)
(0.390297 0.027055 0)
(0.419464 0.0275022 0)
(0.450559 0.027427 0)
(0.482248 0.0266045 0)
(0.512064 0.0248107 0)
(0.537246 0.0218945 0)
(0.556077 0.0175782 0)
(0.0166984 0.000741119 0)
(0.0478175 0.00213987 0)
(0.0748098 0.00339871 0)
(0.0982667 0.00455851 0)
(0.118786 0.00565377 0)
(0.13685 0.00670899 0)
(0.152873 0.00774288 0)
(0.167247 0.00877173 0)
(0.180304 0.00980671 0)
(0.192339 0.0108561 0)
(0.203636 0.0119262 0)
(0.214475 0.0130228 0)
(0.225121 0.0141492 0)
(0.235855 0.0153045 0)
(0.24692 0.016488 0)
(0.258589 0.0176949 0)
(0.271182 0.0189187 0)
(0.284948 0.0201467 0)
(0.300195 0.0213562 0)
(0.317191 0.0225239 0)
(0.336279 0.0236127 0)
(0.35757 0.0245712 0)
(0.3812 0.0253288 0)
(0.407079 0.0257938 0)
(0.434566 0.0258585 0)
(0.462785 0.0253785 0)
(0.490109 0.0242248 0)
(0.514627 0.0223039 0)
(0.534946 0.0194935 0)
(0.549893 0.0157021 0)
(0.0169771 0.000761855 0)
(0.0486431 0.00219957 0)
(0.0761675 0.0034927 0)
(0.100166 0.0046828 0)
(0.121234 0.00580375 0)
(0.139882 0.00688143 0)
(0.156535 0.0079346 0)
(0.171564 0.00897749 0)
(0.185304 0.0100207 0)
(0.198076 0.0110733 0)
(0.210163 0.0121409 0)
(0.221827 0.013226 0)
(0.233353 0.0143322 0)
(0.244998 0.0154579 0)
(0.257021 0.016597 0)
(0.269669 0.0177443 0)
(0.283221 0.0188894 0)
(0.297913 0.0200157 0)
(0.313983 0.0210996 0)
(0.331689 0.0221103 0)
(0.351201 0.0230059 0)
(0.372498 0.0237348 0)
(0.39563 0.0242255 0)
(0.420136 0.0244009 0)
(0.445338 0.0241663 0)
(0.470213 0.0234357 0)
(0.493441 0.0221438 0)
(0.513878 0.0202258 0)
(0.530675 0.0176165 0)
(0.543053 0.014358 0)
(0.0172581 0.000779554 0)
(0.0494753 0.00225046 0)
(0.0775314 0.00357236 0)
(0.102084 0.00478812 0)
(0.12373 0.00593128 0)
(0.142965 0.0070264 0)
(0.160223 0.00809191 0)
(0.175899 0.00914292 0)
(0.190332 0.0101896 0)
(0.20382 0.0112386 0)
(0.216649 0.0122944 0)
(0.229105 0.0133604 0)
(0.241449 0.0144371 0)
(0.253935 0.0155215 0)
(0.266795 0.0166072 0)
(0.280274 0.0176828 0)
(0.294595 0.0187379 0)
(0.309991 0.0197516 0)
(0.326601 0.0206988 0)
(0.34466 0.0215463 0)
(0.364127 0.0222535 0)
(0.384992 0.0227663 0)
(0.407045 0.0230239 0)
(0.429716 0.0229679 0)
(0.452338 0.0225323 0)
(0.474018 0.0216686 0)
(0.493886 0.020333 0)
(0.511207 0.0184913 0)
(0.525373 0.0161354 0)
(0.535935 0.0133564 0)
(0.0175404 0.000794082 0)
(0.050313 0.00229225 0)
(0.0789216 0.00363833 0)
(0.104026 0.00487443 0)
(0.126223 0.00603322 0)
(0.146043 0.00714045 0)
(0.163922 0.00821423 0)
(0.180231 0.00926743 0)
(0.195311 0.0103096 0)
(0.209486 0.0113479 0)
(0.223032 0.0123865 0)
(0.236218 0.0134248 0)
(0.249301 0.0144638 0)
(0.262535 0.015498 0)
(0.276111 0.016519 0)
(0.290246 0.0175157 0)
(0.305168 0.018472 0)
(0.320995 0.0193684 0)
(0.337888 0.020177 0)
(0.355916 0.0208643 0)
(0.374973 0.0213935 0)
(0.395005 0.0217164 0)
(0.415604 0.0217894 0)
(0.436241 0.0215654 0)
(0.45635 0.021006 0)
(0.475286 0.0200779 0)
(0.492434 0.0187586 0)
(0.507316 0.0170357 0)
(0.519495 0.014943 0)
(0.528698 0.0125688 0)
(0.0178199 0.000805175 0)
(0.0511427 0.0023241 0)
(0.0802898 0.00368798 0)
(0.105947 0.00493901 0)
(0.128718 0.00610951 0)
(0.149111 0.00722335 0)
(0.167569 0.00829817 0)
(0.184489 0.00934752 0)
(0.200208 0.0103806 0)
(0.21503 0.0114016 0)
(0.229236 0.0124145 0)
(0.24308 0.0134189 0)
(0.256832 0.0144126 0)
(0.270684 0.0153904 0)
(0.284838 0.0163395 0)
(0.299471 0.0172507 0)
(0.314773 0.0181046 0)
(0.3308 0.0188817 0)
(0.347699 0.019555 0)
(0.365382 0.0200956 0)
(0.383766 0.0204665 0)
(0.402641 0.0206339 0)
(0.421602 0.0205662 0)
(0.44025 0.0202291 0)
(0.458125 0.0195969 0)
(0.474753 0.0186515 0)
(0.489705 0.0173846 0)
(0.502623 0.0158036 0)
(0.513233 0.0139588 0)
(0.521383 0.0119188 0)
(0.0180935 0.000812617 0)
(0.0519553 0.00234539 0)
(0.0816543 0.00372199 0)
(0.107857 0.00498229 0)
(0.131157 0.00615726 0)
(0.152107 0.007272 0)
(0.171148 0.00834388 0)
(0.188649 0.00938338 0)
(0.204961 0.0104002 0)
(0.220387 0.0113993 0)
(0.235192 0.0123802 0)
(0.249622 0.013344 0)
(0.263927 0.0142861 0)
(0.278274 0.0152004 0)
(0.292857 0.0160751 0)
(0.307829 0.0168976 0)
(0.323305 0.0176498 0)
(0.339339 0.0183117 0)
(0.355967 0.0188589 0)
(0.373074 0.0192672 0)
(0.390539 0.0195071 0)
(0.408099 0.019554 0)
(0.42546 0.0193825 0)
(0.442285 0.0189707 0)
(0.458212 0.0183035 0)
(0.4729 0.0173736 0)
(0.486048 0.0161792 0)
(0.497379 0.0147471 0)
(0.506716 0.0131228 0)
(0.514005 0.0113594 0)
(0.0183576 0.000816229 0)
(0.0527337 0.00235529 0)
(0.0829673 0.00373787 0)
(0.109707 0.00500181 0)
(0.133542 0.00617687 0)
(0.155023 0.00728667 0)
(0.174605 0.00834875 0)
(0.192665 0.00937431 0)
(0.20952 0.010369 0)
(0.225485 0.0113392 0)
(0.240823 0.0122842 0)
(0.255763 0.0132016 0)
(0.270501 0.0140882 0)
(0.285242 0.014935 0)
(0.300102 0.0157327 0)
(0.315242 0.0164667 0)
(0.330712 0.0171206 0)
(0.34654 0.0176747 0)
(0.36269 0.018111 0)
(0.379041 0.0184062 0)
(0.395451 0.0185408 0)
(0.411712 0.0184945 0)
(0.427575 0.0182497 0)
(0.442763 0.0177932 0)
(0.456998 0.0171179 0)
(0.470061 0.0162209 0)
(0.481701 0.0151127 0)
(0.491707 0.0138264 0)
(0.500002 0.0123944 0)
(0.50656 0.0108611 0)
(0.0186126 0.000816014 0)
(0.0535062 0.00235509 0)
(0.0842468 0.00373669 0)
(0.111472 0.00499665 0)
(0.135819 0.00616569 0)
(0.157828 0.00726668 0)
(0.177916 0.00831349 0)
(0.196477 0.00931815 0)
(0.213831 0.0102871 0)
(0.23029 0.0112235 0)
(0.246084 0.0121283 0)
(0.261421 0.0129953 0)
(0.276499 0.013823 0)
(0.291495 0.0146013 0)
(0.306494 0.015321 0)
(0.321655 0.0159692 0)
(0.336957 0.0165315 0)
(0.35239 0.0169892 0)
(0.367903 0.0173286 0)
(0.383404 0.0175316 0)