/*--------------------------------*- C++ -*----------------------------------*\
| =========                 |                                                 |
| \\      /  F ield         | OpenFOAM: The Open Source CFD Toolbox           |
|  \\    /   O peration     | Version:  5.x                                   |
|   \\  /    A nd           | Web:      www.OpenFOAM.org                      |
|    \\/     M anipulation  |                                                 |
\*---------------------------------------------------------------------------*/
FoamFile
{
    version     2.0;
    format      ascii;
    class       volVectorField;
    location    "1.4";
    object      Force;
}
// * * * * * * * * * * * * * * * * * * * * * * * * * * * * * * * * * * * * * //

dimensions      [1 1 -2 0 0 0 0];

internalField   uniform (0 0 0);

boundaryField
{
    inlet
    {
        type            calculated;
        value           uniform (0 0 0);
    }
    outlet
    {
        type            calculated;
        value           uniform (0 0 0);
    }
    flap
    {
        type            calculated;
        value           nonuniform List<vector> 
33
(
(3.50016 -0.311691 -5.10491e-20)
(3.45962 -0.702425 4.68177e-21)
(3.38978 -1.06288 -5.11794e-23)
(3.2759 -1.35571 1.65529e-17)
(3.11865 -1.55294 -1.80901e-17)
(2.94851 -1.65741 -2.12551e-18)
(2.78432 -1.695 -2.07486e-18)
(2.62537 -1.69485 -1.38286e-17)
(2.4595 -1.66918 1.09096e-17)
(2.28619 -1.61623 2.06798e-18)
(2.1003 -1.53646 -1.11741e-17)
(1.89959 -1.42537 -5.25271e-23)
(1.68077 -1.28263 1.10217e-17)
(1.43328 -1.10291 1.25975e-20)
(1.14288 -0.87962 5.64237e-37)
(0.465474 0.597375 -4.53956e-21)
(0.188561 0.245428 -3.92018e-21)
(0.0484609 0.0667008 4.87429e-21)
(-0.0708511 0.00791692 0)
(-0.0714577 0.0174703 -1.32953e-18)
(-0.0715312 0.0264688 -1.80939e-23)
(-0.0705452 0.0334298 -6.23599e-22)
(-0.0690578 0.0381766 2.00195e-18)
(-0.0680707 0.0412425 -1.33305e-18)
(-0.0684087 0.0440922 -2.1756e-18)
(-0.0704106 0.0476499 3.89706e-19)
(-0.0732621 0.0518476 1.56267e-21)
(-0.076549 0.0561616 -1.95232e-18)
(-0.0804923 0.0608434 4.40402e-19)
(-0.0846768 0.0653609 -4.08641e-23)
(-0.0870111 0.0681217 2.81484e-23)
(-0.0849369 0.0671461 2.36341e-18)
(-0.0739075 0.0597656 -3.24148e-18)
)
;
    }
    upperWall
    {
        type            calculated;
        value           uniform (0 0 0);
    }
    lowerWall
    {
        type            calculated;
        value           uniform (0 0 0);
    }
    frontAndBack
    {
        type            empty;
    }
}


// ************************************************************************* //
