/*--------------------------------*- C++ -*----------------------------------*\
| =========                 |                                                 |
| \\      /  F ield         | OpenFOAM: The Open Source CFD Toolbox           |
|  \\    /   O peration     | Version:  2006                                  |
|   \\  /    A nd           | Website:  www.openfoam.com                      |
|    \\/     M anipulation  |                                                 |
\*---------------------------------------------------------------------------*/
FoamFile
{
    version     2.0;
    format      ascii;
    class       volVectorField;
    location    "9";
    object      U;
}
// * * * * * * * * * * * * * * * * * * * * * * * * * * * * * * * * * * * * * //

dimensions      [0 1 -1 0 0 0 0];


internalField   nonuniform List<vector> 
2790
(
(9.94399 0.0205235 0)
(9.87572 0.0295883 0)
(9.7752 0.0359904 0)
(9.64943 0.0425574 0)
(9.50408 0.049387 0)
(9.34005 0.0564304 0)
(9.15652 0.0638184 0)
(8.95259 0.0717147 0)
(8.72742 0.080259 0)
(8.48003 0.0895781 0)
(8.2092 0.0997989 0)
(7.91356 0.111052 0)
(7.59158 0.123468 0)
(7.24166 0.137173 0)
(6.86219 0.152282 0)
(6.45163 0.168881 0)
(6.0087 0.187009 0)
(5.53248 0.206631 0)
(5.02275 0.227603 0)
(4.48021 0.249623 0)
(3.90691 0.272187 0)
(3.30658 0.294533 0)
(2.68503 0.315625 0)
(2.05038 0.33429 0)
(1.41157 0.350604 0)
(0.797839 0.372884 0)
(0.110438 0.324955 0)
(-0.469577 -0.114909 0)
(-0.453808 -0.297114 0)
(-0.231165 -0.423843 0)
(9.9985 0.0407039 0)
(9.98145 0.0623845 0)
(9.93574 0.0791427 0)
(9.86415 0.0966283 0)
(9.77096 0.115128 0)
(9.65713 0.134494 0)
(9.52203 0.154982 0)
(9.36482 0.176952 0)
(9.18467 0.200718 0)
(8.98062 0.226562 0)
(8.75146 0.254759 0)
(8.4958 0.285577 0)
(8.2121 0.319269 0)
(7.8987 0.356044 0)
(7.5539 0.396044 0)
(7.17604 0.439289 0)
(6.76361 0.485619 0)
(6.31546 0.534614 0)
(5.83104 0.585487 0)
(5.31065 0.636976 0)
(4.75591 0.687221 0)
(4.17016 0.733657 0)
(3.55905 0.772955 0)
(2.93131 0.801085 0)
(2.29972 0.813731 0)
(1.69276 0.807227 0)
(1.10697 0.747192 0)
(0.658779 0.547858 0)
(0.18626 0.224503 0)
(-0.00819773 -0.453778 0)
(9.99559 0.0432084 0)
(9.97556 0.0752745 0)
(9.9318 0.10335 0)
(9.86489 0.132377 0)
(9.77777 0.163067 0)
(9.67153 0.195408 0)
(9.54585 0.229754 0)
(9.4001 0.266617 0)
(9.23361 0.306487 0)
(9.04558 0.349827 0)
(8.83502 0.397095 0)
(8.60073 0.448748 0)
(8.34135 0.505222 0)
(8.05539 0.566897 0)
(7.74125 0.634048 0)
(7.39729 0.70677 0)
(7.02194 0.784877 0)
(6.61377 0.867763 0)
(6.17173 0.954231 0)
(5.69542 1.04229 0)
(5.1854 1.12891 0)
(4.64372 1.2098 0)
(4.07455 1.27916 0)
(3.48514 1.32932 0)
(2.88662 1.35005 0)
(2.29927 1.32637 0)
(1.73168 1.22069 0)
(1.21613 0.972907 0)
(0.701055 0.570037 0)
(0.357986 -0.156712 0)
(9.99403 0.0495012 0)
(9.97181 0.0932102 0)
(9.92788 0.133578 0)
(9.86224 0.174217 0)
(9.77692 0.216444 0)
(9.67296 0.260674 0)
(9.55029 0.307446 0)
(9.40846 0.357434 0)
(9.24698 0.411313 0)
(9.06528 0.469732 0)
(8.86262 0.533333 0)
(8.63812 0.602759 0)
(8.39075 0.678632 0)
(8.11941 0.761518 0)
(7.82287 0.851868 0)
(7.49986 0.949925 0)
(7.14908 1.0556 0)
(6.76926 1.16829 0)
(6.35929 1.28665 0)
(5.91838 1.40831 0)
(5.4463 1.5295 0)
(4.94376 1.6447 0)
(4.41293 1.74614 0)
(3.85803 1.82319 0)
(3.2856 1.86131 0)
(2.7062 1.84025 0)
(2.12548 1.72589 0)
(1.55413 1.47773 0)
(0.957868 1.08354 0)
(0.509398 0.502162 0)
(9.99331 0.0572161 0)
(9.96994 0.110964 0)
(9.92593 0.162111 0)
(9.86145 0.213358 0)
(9.77798 0.26637 0)
(9.67633 0.321931 0)
(9.55652 0.380722 0)
(9.41818 0.443512 0)
(9.26093 0.511085 0)
(9.08428 0.584204 0)
(8.88764 0.663626 0)
(8.67031 0.750107 0)
(8.4315 0.844384 0)
(8.17035 0.947138 0)
(7.88595 1.05894 0)
(7.57734 1.18014 0)
(7.2435 1.31075 0)
(6.88343 1.45024 0)
(6.49608 1.59728 0)
(6.08051 1.74937 0)
(5.63592 1.90245 0)
(5.16187 2.05034 0)
(4.65853 2.18417 0)
(4.12697 2.29171 0)
(3.56917 2.35649 0)
(2.98868 2.35722 0)
(2.38665 2.26481 0)
(1.76625 2.04746 0)
(1.0899 1.69119 0)
(0.536614 1.15393 0)
(9.99302 0.0655416 0)
(9.96923 0.128708 0)
(9.92556 0.190123 0)
(9.86252 0.251856 0)
(9.78127 0.315594 0)
(9.68243 0.382339 0)
(9.56599 0.452899 0)
(9.43168 0.52813 0)
(9.27916 0.608914 0)
(9.10801 0.696124 0)
(8.91771 0.790625 0)
(8.70767 0.893276 0)
(8.47719 1.00491 0)
(8.22557 1.12632 0)
(7.95202 1.25816 0)
(7.65575 1.40089 0)
(7.33587 1.55462 0)
(6.99146 1.71894 0)
(6.62148 1.89262 0)
(6.22478 2.07328 0)
(5.80004 2.2569 0)
(5.34579 2.43723 0)
(4.86045 2.60519 0)
(4.34244 2.74818 0)
(3.79014 2.84946 0)
(3.20234 2.88807 0)
(2.57637 2.83805 0)
(1.91331 2.67139 0)
(1.17265 2.37373 0)
(0.549922 1.89412 0)
(9.99297 0.0740783 0)
(9.96926 0.146321 0)
(9.92637 0.217494 0)
(9.86508 0.289306 0)
(9.78641 0.363374 0)
(9.69083 0.44085 0)
(9.57833 0.522688 0)
(9.44869 0.609844 0)
(9.30161 0.703295 0)
(9.13673 0.804011 0)
(8.95359 0.912953 0)
(8.75163 1.03107 0)
(8.53025 1.15929 0)
(8.28877 1.29847 0)
(8.02647 1.44938 0)
(7.74255 1.61257 0)
(7.43613 1.78828 0)
(7.10622 1.97625 0)
(6.7516 2.17549 0)
(6.37078 2.38389 0)
(5.96185 2.5978 0)
(5.52237 2.81142 0)
(5.04924 3.01615 0)
(4.53871 3.19992 0)
(3.98637 3.34659 0)
(3.38764 3.43581 0)
(2.73701 3.44309 0)
(2.03605 3.34122 0)
(1.24162 3.11324 0)
(0.563458 2.69279 0)
(9.99306 0.0825919 0)
(9.96981 0.163614 0)
(9.92807 0.244062 0)
(9.86884 0.325496 0)
(9.79312 0.409467 0)
(9.70124 0.497232 0)
(9.59321 0.58987 0)
(9.46885 0.688434 0)
(9.32792 0.793985 0)
(9.1701 0.907582 0)
(8.99497 1.03028 0)
(8.80204 1.16311 0)
(8.59073 1.30708 0)
(8.36041 1.46318 0)
(8.11033 1.63224 0)
(7.83967 1.81497 0)
(7.54745 2.01177 0)
(7.23248 2.22262 0)
(6.89329 2.44684 0)
(6.52793 2.68278 0)
(6.13382 2.92743 0)
(5.70756 3.17582 0)
(5.24465 3.42038 0)
(4.73945 3.65016 0)
(4.18515 3.85013 0)
(3.57443 4.00071 0)
(2.89922 4.07764 0)
(2.16187 4.05204 0)
(1.31596 3.90128 0)
(0.583146 3.5397 0)
(9.99326 0.0909325 0)
(9.97072 0.180417 0)
(9.93046 0.26968 0)
(9.87362 0.360259 0)
(9.80117 0.453669 0)
(9.71342 0.551238 0)
(9.61036 0.654146 0)
(9.49186 0.763538 0)
(9.35773 0.880554 0)
(9.20769 1.00634 0)
(9.0414 1.14202 0)
(8.85841 1.28874 0)
(8.65819 1.44761 0)
(8.44012 1.61969 0)
(8.20346 1.80597 0)
(7.94732 2.00732 0)
(7.67062 2.22437 0)
(7.37198 2.4574 0)
(7.04958 2.70618 0)
(6.70102 2.96969 0)
(6.32306 3.24576 0)
(5.91133 3.53061 0)
(5.46001 3.8181 0)
(4.96163 4.09896 0)
(4.40701 4.35976 0)
(3.786 4.58191 0)
(3.08719 4.74078 0)
(2.31239 4.80405 0)
(1.41043 4.74057 0)
(0.61421 4.44135 0)
(9.99352 0.0989967 0)
(9.9719 0.196588 0)
(9.9334 0.294209 0)
(9.87924 0.393435 0)
(9.81039 0.49578 0)
(9.72716 0.602619 0)
(9.62952 0.71522 0)
(9.51739 0.834807 0)
(9.39066 0.962598 0)
(9.24909 1.09981 0)
(9.09241 1.24766 0)
(8.92022 1.40738 0)
(8.73206 1.58016 0)
(8.52733 1.76721 0)
(8.30533 1.96968 0)
(8.06513 2.18861 0)
(7.80557 2.42493 0)
(7.52511 2.67932 0)
(7.22169 2.95207 0)
(6.89251 3.24297 0)
(6.53373 3.55092 0)
(6.14012 3.8736 0)
(5.70465 4.20677 0)
(5.21804 4.54338 0)
(4.66851 4.87235 0)
(4.04237 5.17676 0)
(3.3232 5.43196 0)
(2.50933 5.60147 0)
(1.54156 5.64285 0)
(0.663915 5.41729 0)
(9.99384 0.106709 0)
(9.9733 0.212009 0)
(9.93679 0.317517 0)
(9.88558 0.424875 0)
(9.82063 0.535614 0)
(9.74224 0.651153 0)
(9.65043 0.772827 0)
(9.54516 0.901933 0)
(9.42635 1.03976 0)
(9.29387 1.18758 0)
(9.14749 1.34671 0)
(8.98689 1.51844 0)
(8.81169 1.7041 0)
(8.62135 1.90499 0)
(8.41522 2.12244 0)
(8.1924 2.35775 0)
(7.95173 2.61213 0)
(7.6916 2.88671 0)
(7.40982 3.18246 0)
(7.10337 3.50004 0)
(6.76802 3.83965 0)
(6.39795 4.20069 0)
(5.98511 4.58129 0)
(5.51856 4.97737 0)
(4.98379 5.38126 0)
(4.36263 5.77936 0)
(3.63125 6.14876 0)
(2.77952 6.45007 0)
(1.73301 6.62768 0)
(0.744619 6.5021 0)
(9.9942 0.114011 0)
(9.97487 0.226585 0)
(9.94055 0.339488 0)
(9.89251 0.454444 0)
(9.83173 0.57301 0)
(9.7585 0.696643 0)
(9.67288 0.826735 0)
(9.57487 0.964643 0)
(9.46446 1.11171 0)
(9.3416 1.26929 0)
(9.20612 1.43873 0)
(9.05782 1.62143 0)
(8.89639 1.8188 0)
(8.7214 2.03229 0)
(8.53228 2.26338 0)
(8.32825 2.51361 0)
(8.10821 2.78453 0)
(7.87063 3.07776 0)
(7.61339 3.39494 0)
(7.33345 3.73771 0)
(7.02658 4.10768 0)
(6.68673 4.50624 0)
(6.30537 4.93429 0)
(5.87047 5.39156 0)
(5.36506 5.87536 0)
(4.76608 6.37809 0)
(4.03983 6.88284 0)
(3.1606 7.35281 0)
(2.02406 7.72214 0)
(0.880387 7.75572 0)
(9.99459 0.120858 0)
(9.97657 0.240235 0)
(9.94461 0.360023 0)
(9.89995 0.482022 0)
(9.84356 0.607823 0)
(9.77575 0.738917 0)
(9.69661 0.87674 0)
(9.60622 1.0227 0)
(9.50462 1.17818 0)
(9.39183 1.34459 0)
(9.26779 1.52334 0)
(9.13239 1.71589 0)
(8.98543 1.92373 0)
(8.82663 2.14843 0)
(8.65555 2.39164 0)
(8.47157 2.65512 0)
(8.27379 2.94074 0)
(8.06091 3.25057 0)
(7.83104 3.58694 0)
(7.58151 3.95245 0)
(7.30843 4.35012 0)
(7.00619 4.78344 0)
(6.66664 5.25637 0)
(6.27776 5.77317 0)
(5.82158 6.33781 0)
(5.27143 6.95236 0)
(4.58333 7.6133 0)
(3.70869 8.30015 0)
(2.48708 8.95686 0)
(1.12387 9.29122 0)
(9.99501 0.127216 0)
(9.97838 0.252895 0)
(9.94891 0.379037 0)
(9.90779 0.507508 0)
(9.85598 0.639936 0)
(9.79381 0.777837 0)
(9.72142 0.922682 0)
(9.63893 1.07591 0)
(9.54646 1.23896 0)
(9.44412 1.41325 0)
(9.33194 1.60025 0)
(9.20992 1.80147 0)
(9.07802 2.01846 0)
(8.9361 2.2529 0)
(8.78391 2.50656 0)
(8.62108 2.78138 0)
(8.44697 3.07952 0)
(8.26065 3.40345 0)
(8.06074 3.75607 0)
(7.84517 4.14083 0)
(7.61094 4.56204 0)
(7.3536 5.02509 0)
(7.06651 5.53692 0)
(6.73959 6.10652 0)
(6.35688 6.74555 0)
(5.89275 7.46906 0)
(5.29916 8.29616 0)
(4.50698 9.24725 0)
(3.26695 10.3401 0)
(1.60383 11.3559 0)
(9.99545 0.133056 0)
(9.98026 0.264514 0)
(9.95339 0.396458 0)
(9.91596 0.53081 0)
(9.86888 0.669227 0)
(9.81253 0.813248 0)
(9.74708 0.964366 0)
(9.67271 1.12405 0)
(9.58963 1.29375 0)
(9.49801 1.47492 0)
(9.39801 1.66905 0)
(9.28976 1.87768 0)
(9.17335 2.10243 0)
(9.04883 2.345 0)
(8.91619 2.60728 0)
(8.77532 2.89133 0)
(8.62597 3.19953 0)
(8.46769 3.53461 0)
(8.29976 3.89988 0)
(8.12103 4.29945 0)
(7.92979 4.73853 0)
(7.72347 5.22395 0)
(7.49823 5.76494 0)
(7.24817 6.37431 0)
(6.96376 7.07047 0)
(6.62946 7.88122 0)
(6.21243 8.85191 0)
(5.66322 10.0654 0)
(4.68694 11.7292 0)
(2.68496 14.5864 0)
(0.121026 -0.119867 0)
(0.284004 -0.109086 0)
(0.450316 -0.085684 0)
(0.588844 -0.0630277 0)
(0.694023 -0.0437607 0)
(0.76951 -0.0278111 0)
(0.820022 -0.0146091 0)
(0.849215 -0.00364861 0)
(0.859895 0.00526851 0)
(0.854672 0.0115024 0)
(0.836009 0.0158475 0)
(0.806792 0.0187119 0)
(0.76987 0.0202584 0)
(0.727984 0.0205682 0)
(0.683868 0.0197535 0)
(0.640165 0.0180065 0)
(0.599189 0.0156065 0)
(0.562674 0.0128976 0)
(0.531624 0.0102357 0)
(0.506236 0.00792433 0)
(0.48595 0.00614489 0)
(0.469702 0.00490781 0)
(0.456333 0.00408883 0)
(0.444932 0.00351895 0)
(0.434986 0.0030561 0)
(0.426309 0.00263407 0)
(0.418854 0.00226302 0)
(0.412501 0.00198554 0)
(0.406964 0.00179823 0)
(0.401219 0.0014295 0)
(0.10515 -0.282766 0)
(0.26545 -0.264845 0)
(0.422142 -0.214872 0)
(0.555764 -0.165305 0)
(0.66246 -0.122806 0)
(0.745758 -0.0873391 0)
(0.809747 -0.0576732 0)
(0.857482 -0.0326469 0)
(0.890958 -0.0114219 0)
(0.911821 0.00640547 0)
(0.918893 0.020401 0)
(0.914395 0.0307642 0)
(0.90104 0.0376701 0)
(0.881588 0.0412447 0)
(0.858855 0.0417517 0)
(0.835542 0.0396647 0)
(0.813973 0.0356266 0)
(0.79585 0.0303889 0)
(0.78211 0.0247628 0)
(0.772858 0.0195147 0)
(0.767447 0.0152056 0)
(0.764787 0.0120237 0)
(0.763791 0.00980616 0)
(0.763694 0.00822036 0)
(0.76414 0.00693537 0)
(0.765063 0.00576727 0)
(0.766466 0.0047108 0)
(0.768219 0.00386521 0)
(0.769971 0.00329871 0)
(0.771497 0.00285976 0)
(0.0848093 -0.449246 0)
(0.224958 -0.41996 0)
(0.35208 -0.343325 0)
(0.460386 -0.26819 0)
(0.547058 -0.204211 0)
(0.615772 -0.150981 0)
(0.669756 -0.106625 0)
(0.711319 -0.069423 0)
(0.742242 -0.0379391 0)
(0.763791 -0.0106533 0)
(0.778881 0.0122331 0)
(0.785035 0.0299201 0)
(0.784416 0.0421985 0)
(0.779075 0.049042 0)
(0.771174 0.0508515 0)
(0.762783 0.048415 0)
(0.755614 0.0427687 0)
(0.750866 0.0351277 0)
(0.749139 0.0268238 0)
(0.750353 0.0191455 0)
(0.753771 0.0130527 0)
(0.758295 0.00883113 0)
(0.762927 0.00616134 0)
(0.767052 0.00446314 0)
(0.770467 0.00320303 0)
(0.773257 0.00211073 0)
(0.775583 0.00120893 0)
(0.777527 0.000667777 0)
(0.779007 0.000619494 0)
(0.779766 0.00116753 0)
(0.0649966 -0.583613 0)
(0.179201 -0.537815 0)
(0.269963 -0.436996 0)
(0.348156 -0.341738 0)
(0.409737 -0.261972 0)
(0.459202 -0.195928 0)
(0.498704 -0.140953 0)
(0.529663 -0.0947784 0)
(0.553189 -0.0557661 0)
(0.569745 -0.0229502 0)
(0.583234 0.00466107 0)
(0.589775 0.026824 0)
(0.591634 0.0424286 0)
(0.590679 0.0510816 0)
(0.588684 0.0533666 0)
(0.587054 0.0503815 0)
(0.58672 0.0435012 0)
(0.588178 0.0343367 0)
(0.591483 0.0246291 0)
(0.596186 0.0160409 0)
(0.60126 0.00979018 0)
(0.605405 0.00604487 0)
(0.607707 0.00421092 0)
(0.607855 0.00341597 0)
(0.606018 0.00293817 0)
(0.602672 0.00241046 0)
(0.598339 0.00186085 0)
(0.593418 0.00151791 0)
(0.588131 0.00156157 0)
(0.581737 0.00228068 0)
(0.0444702 -0.68759 0)
(0.127495 -0.62049 0)
(0.17641 -0.498708 0)
(0.222168 -0.389714 0)
(0.255344 -0.300142 0)
(0.282491 -0.226358 0)
(0.304359 -0.165062 0)
(0.321762 -0.113553 0)
(0.335296 -0.0699743 0)
(0.345041 -0.0331462 0)
(0.351703 -0.00149577 0)
(0.356967 0.0238234 0)
(0.358311 0.0414549 0)
(0.357779 0.0508509 0)
(0.357167 0.0529951 0)
(0.357226 0.0493217 0)
(0.357985 0.0414945 0)
(0.35909 0.0313702 0)
(0.359969 0.0209072 0)
(0.359947 0.0121258 0)
(0.357973 0.00684786 0)
(0.352878 0.00465951 0)
(0.344476 0.00458757 0)
(0.333255 0.0054371 0)
(0.319868 0.0062696 0)
(0.30509 0.00660917 0)
(0.28959 0.00653327 0)
(0.273808 0.00646557 0)
(0.258236 0.00681652 0)
(0.241319 0.00692077 0)
(0.0227289 -0.756016 0)
(0.069407 -0.663863 0)
(0.0724199 -0.524513 0)
(0.0839904 -0.407824 0)
(0.0856394 -0.313262 0)
(0.0871068 -0.235976 0)
(0.0874601 -0.172169 0)
(0.087591 -0.118794 0)
(0.0880896 -0.0738868 0)
(0.0884413 -0.0367292 0)
(0.0897758 -0.00561603 0)
(0.0873575 0.0222622 0)
(0.0845806 0.0423181 0)
(0.080658 0.0521806 0)
(0.0767348 0.0539705 0)
(0.0717597 0.0500587 0)
(0.0642155 0.0425622 0)
(0.0526997 0.0334868 0)
(0.0364605 0.0247696 0)
(0.0166962 0.0181941 0)
(-0.00514323 0.0150386 0)
(-0.0266624 0.0149111 0)
(-0.0463982 0.0162463 0)
(-0.0643705 0.0175698 0)
(-0.0812519 0.0181381 0)
(-0.0972098 0.0178709 0)
(-0.112414 0.0172395 0)
(-0.127013 0.0167507 0)
(-0.14135 0.0159257 0)
(-0.154362 0.013249 0)
(-0.00168668 -0.782423 0)
(0.00346024 -0.66302 0)
(-0.0406434 -0.510602 0)
(-0.0666936 -0.392142 0)
(-0.0991801 -0.297419 0)
(-0.127579 -0.221455 0)
(-0.153224 -0.159824 0)
(-0.175248 -0.109135 0)
(-0.19374 -0.0664209 0)
(-0.210868 -0.0292582 0)
(-0.233035 0.00389208 0)
(-0.245348 0.0305251 0)
(-0.252265 0.0473879 0)
(-0.26095 0.0563274 0)
(-0.271164 0.0589071 0)
(-0.284078 0.057064 0)
(-0.300066 0.0524386 0)
(-0.318909 0.0464614 0)
(-0.339908 0.0403685 0)
(-0.362036 0.03503 0)
(-0.384401 0.0309519 0)
(-0.405667 0.0287525 0)
(-0.425171 0.0277228 0)
(-0.442435 0.0269804 0)
(-0.45748 0.0259247 0)
(-0.470413 0.02451 0)
(-0.481575 0.023038 0)
(-0.491504 0.0217005 0)
(-0.500613 0.0200579 0)
(-0.50729 0.0178273 0)
(-0.0318781 -0.759326 0)
(-0.0729017 -0.614175 0)
(-0.161497 -0.459349 0)
(-0.230693 -0.343217 0)
(-0.299522 -0.253211 0)
(-0.361053 -0.182655 0)
(-0.415695 -0.126131 0)
(-0.463297 -0.0796537 0)
(-0.504126 -0.0399837 0)
(-0.539792 -0.00605838 0)
(-0.568287 0.0206198 0)
(-0.583732 0.0403551 0)
(-0.597017 0.0551416 0)
(-0.608737 0.0643164 0)
(-0.620856 0.0681595 0)
(-0.634438 0.0677993 0)
(-0.649773 0.0643688 0)
(-0.666678 0.0590274 0)
(-0.684784 0.0530093 0)
(-0.703694 0.0474473 0)
(-0.722928 0.0430769 0)
(-0.741707 0.0400759 0)
(-0.759227 0.0378535 0)
(-0.774718 0.0356438 0)
(-0.787709 0.03303 0)
(-0.798147 0.0301865 0)
(-0.806474 0.0275807 0)
(-0.81349 0.0254156 0)
(-0.819661 0.0233712 0)
(-0.823524 0.021529 0)
(-0.0686128 -0.684164 0)
(-0.157035 -0.51788 0)
(-0.29423 -0.365869 0)
(-0.408466 -0.2574 0)
(-0.514229 -0.178206 0)
(-0.606033 -0.11876 0)
(-0.684217 -0.0721189 0)
(-0.749909 -0.0345956 0)
(-0.804728 -0.00420317 0)
(-0.844747 0.0195842 0)
(-0.871189 0.0382112 0)
(-0.892313 0.0534251 0)
(-0.908547 0.0653492 0)
(-0.921766 0.0732195 0)
(-0.933871 0.0769968 0)
(-0.946203 0.0771319 0)
(-0.959397 0.0742951 0)
(-0.973541 0.0694102 0)
(-0.988508 0.0636482 0)
(-1.00418 0.0581502 0)
(-1.02039 0.0536199 0)
(-1.0367 0.0500533 0)
(-1.05236 0.0468122 0)
(-1.0664 0.0431861 0)
(-1.07801 0.0389763 0)
(-1.0869 0.0346549 0)
(-1.09353 0.0309225 0)
(-1.09886 0.0280671 0)
(-1.10338 0.0258758 0)
(-1.10592 0.0244511 0)
(-0.115419 -0.550929 0)
(-0.257457 -0.371478 0)
(-0.448334 -0.231687 0)
(-0.605522 -0.139833 0)
(-0.744092 -0.0767649 0)
(-0.860201 -0.0335458 0)
(-0.952127 -0.0040969 0)
(-1.02126 0.0168667 0)
(-1.07152 0.0328141 0)
(-1.10988 0.0461473 0)
(-1.14013 0.0580289 0)
(-1.16356 0.0683993 0)
(-1.18141 0.0766156 0)
(-1.19534 0.0822513 0)
(-1.20727 0.0851511 0)
(-1.21871 0.0852665 0)
(-1.23046 0.0827222 0)
(-1.24267 0.0781039 0)
(-1.25528 0.0725152 0)
(-1.26837 0.0671575 0)
(-1.28212 0.0627057 0)
(-1.29648 0.0589582 0)
(-1.3108 0.0550584 0)
(-1.32393 0.0502099 0)
(-1.33468 0.0443908 0)
(-1.3425 0.0384728 0)
(-1.34787 0.0335439 0)
(-1.35192 0.0300614 0)
(-1.35526 0.0278232 0)
(-1.35702 0.0267226 0)
(-0.182431 -0.356974 0)
(-0.398182 -0.179669 0)
(-0.663686 -0.042638 0)
(-0.853296 0.0184703 0)
(-0.998323 0.0448389 0)
(-1.10687 0.0555933 0)
(-1.18982 0.0607485 0)
(-1.25499 0.0647064 0)
(-1.30614 0.0689211 0)
(-1.34633 0.0738916 0)
(-1.37783 0.0792927 0)
(-1.40215 0.084374 0)
(-1.42052 0.0884618 0)
(-1.43452 0.091365 0)
(-1.4461 0.0929666 0)
(-1.45697 0.0927893 0)
(-1.46795 0.0903071 0)
(-1.47897 0.0856806 0)
(-1.48983 0.0800117 0)
(-1.50079 0.0747182 0)
(-1.5125 0.0705319 0)
(-1.52535 0.066987 0)
(-1.53886 0.0628086 0)
(-1.55161 0.0569257 0)
(-1.56189 0.0494359 0)
(-1.56881 0.0417397 0)
(-1.57295 0.0355266 0)
(-1.57575 0.0315013 0)
(-1.57806 0.0293047 0)
(-1.57924 0.028448 0)
(-0.298857 -0.0304591 0)
(-0.587112 0.151633 0)
(-0.860743 0.178091 0)
(-1.05689 0.172822 0)
(-1.20529 0.15646 0)
(-1.31739 0.13869 0)
(-1.40277 0.124124 0)
(-1.46845 0.113295 0)
(-1.5191 0.105858 0)
(-1.55834 0.10192 0)
(-1.58903 0.10071 0)
(-1.61289 0.100559 0)
(-1.63078 0.100359 0)
(-1.644 0.100246 0)
(-1.65474 0.10042 0)
(-1.66504 0.0999788 0)
(-1.67564 0.0975044 0)
(-1.68599 0.0925826 0)
(-1.69547 0.0864491 0)
(-1.70445 0.0810341 0)
(-1.71423 0.0772927 0)
(-1.72587 0.0743905 0)
(-1.73907 0.070359 0)
(-1.75198 0.0635975 0)
(-1.76216 0.0542507 0)
(-1.76823 0.0444414 0)
(-1.77092 0.0367846 0)
(-1.77227 0.0323395 0)
(-1.77353 0.0303323 0)
(-1.77426 0.0296811 0)
(-0.387487 0.444129 0)
(-0.725252 0.481084 0)
(-1.05032 0.411569 0)
(-1.26579 0.337939 0)
(-1.41807 0.275275 0)
(-1.5269 0.223601 0)
(-1.60674 0.185928 0)
(-1.66734 0.159606 0)
(-1.71351 0.140567 0)
(-1.74871 0.128041 0)
(-1.77648 0.120927 0)
(-1.79867 0.116107 0)
(-1.81521 0.111522 0)
(-1.82667 0.108057 0)
(-1.83568 0.106879 0)
(-1.84513 0.106631 0)
(-1.85567 0.104447 0)
(-1.86582 0.0989932 0)
(-1.87406 0.0918618 0)
(-1.88087 0.0860305 0)
(-1.88852 0.0829843 0)
(-1.89906 0.081343 0)
(-1.91246 0.0780214 0)
(-1.92621 0.0705375 0)
(-1.93672 0.0589854 0)
(-1.94185 0.0464924 0)
(-1.94263 0.0371089 0)
(-1.94213 0.0324448 0)
(-1.94229 0.0309151 0)
(-1.94264 0.030476 0)
(-0.513999 0.970166 0)
(-0.946936 0.891626 0)
(-1.31247 0.676913 0)
(-1.51509 0.503233 0)
(-1.64861 0.386737 0)
(-1.7398 0.296924 0)
(-1.80309 0.238438 0)
(-1.85195 0.201657 0)
(-1.88988 0.172705 0)
(-1.91797 0.151239 0)
(-1.94072 0.138839 0)
(-1.96047 0.13033 0)
(-1.97516 0.121403 0)
(-1.98365 0.11424 0)
(-1.98951 0.112145 0)
(-1.9975 0.113253 0)
(-2.00842 0.112081 0)
(-2.01902 0.105727 0)
(-2.0261 0.0965688 0)
(-2.03013 0.0896458 0)
(-2.03499 0.0875453 0)
(-2.04435 0.0880181 0)
(-2.05854 0.0861718 0)
(-2.074 0.078142 0)
(-2.08541 0.063821 0)
(-2.08941 0.0477216 0)
(-2.08749 0.0361255 0)
(-2.08447 0.03159 0)
(-2.08344 0.0311001 0)
(-2.08356 0.0309522 0)
(-0.755294 2.02395 0)
(-1.29544 1.58187 0)
(-1.68842 0.97709 0)
(-1.82399 0.588387 0)
(-1.90063 0.455248 0)
(-1.95536 0.349464 0)
(-1.98595 0.281841 0)
(-2.0175 0.239757 0)
(-2.0474 0.196163 0)
(-2.06623 0.161521 0)
(-2.08076 0.147964 0)
(-2.09719 0.141784 0)
(-2.10999 0.13066 0)
(-2.11403 0.118754 0)
(-2.11449 0.115014 0)
(-2.12016 0.118728 0)
(-2.13242 0.119487 0)
(-2.14473 0.111638 0)
(-2.15067 0.0989451 0)
(-2.15064 0.0901052 0)
(-2.15131 0.0897211 0)
(-2.15907 0.0940202 0)
(-2.17472 0.0950476 0)
(-2.19307 0.0868717 0)
(-2.20617 0.0690075 0)
(-2.20871 0.0478661 0)
(-2.20277 0.0332169 0)
(-2.19611 0.0293959 0)
(-2.19381 0.0310145 0)
(-2.19396 0.0314143 0)
(9.9959 0.138451 0)
(9.98225 0.275248 0)
(9.95811 0.41254 0)
(9.92453 0.552294 0)
(9.88242 0.696188 0)
(9.83216 0.845775 0)
(9.77399 1.00256 0)
(9.70815 1.16802 0)
(9.63492 1.34362 0)
(9.55458 1.53082 0)
(9.46739 1.73112 0)
(9.37363 1.94607 0)
(9.27354 2.17728 0)
(9.1674 2.42652 0)
(9.05545 2.69568 0)
(8.93791 2.98691 0)
(8.81497 3.30266 0)
(8.68676 3.64582 0)
(8.55335 4.0199 0)
(8.41473 4.42928 0)
(8.27084 4.87962 0)
(8.12154 5.37835 0)
(7.96676 5.93567 0)
(7.80677 6.56591 0)
(7.64272 7.29014 0)
(7.47954 8.14094 0)
(7.33037 9.17222 0)
(7.28499 10.4774 0)
(7.74013 12.2012 0)
(7.91611 14.918 0)
(9.99638 0.14341 0)
(9.98434 0.285103 0)
(9.96305 0.427268 0)
(9.93352 0.571904 0)
(9.89657 0.720703 0)
(9.85262 0.875223 0)
(9.80197 1.03697 0)
(9.74493 1.20743 0)
(9.68184 1.38804 0)
(9.61309 1.58028 0)
(9.53907 1.78561 0)
(9.46019 2.00557 0)
(9.37688 2.24178 0)
(9.28963 2.49594 0)
(9.19895 2.76997 0)
(9.10543 3.06596 0)
(9.0097 3.38635 0)
(8.91253 3.73398 0)
(8.81483 4.11232 0)
(8.71776 4.52562 0)
(8.62293 4.9793 0)
(8.5327 5.4804 0)
(8.45077 6.03824 0)
(8.38337 6.66542 0)
(8.34165 7.37916 0)
(8.34761 8.20291 0)
(8.44 9.16684 0)
(8.67456 10.3043 0)
(9.3198 11.5604 0)
(9.80716 12.6522 0)
(9.99688 0.147847 0)
(9.98651 0.293914 0)
(9.96819 0.440418 0)
(9.94283 0.589373 0)
(9.91121 0.742475 0)
(9.87378 0.901276 0)
(9.83086 1.06727 0)
(9.78284 1.24192 0)
(9.73014 1.42666 0)
(9.67324 1.62291 0)
(9.61264 1.83212 0)
(9.54889 2.05578 0)
(9.48262 2.29543 0)
(9.41453 2.55274 0)
(9.3454 2.82951 0)
(9.27617 3.12774 0)
(9.20792 3.44971 0)
(9.14199 3.79804 0)
(9.08008 4.17587 0)
(9.02438 4.58696 0)
(8.97792 5.0359 0)
(8.94496 5.52839 0)
(8.93179 6.07142 0)
(8.94791 6.67339 0)
(9.0078 7.34377 0)
(9.13357 8.09126 0)
(9.35621 8.91781 0)
(9.68526 9.81249 0)
(10.2507 10.7242 0)
(10.9381 11.4436 0)
(9.9974 0.151709 0)
(9.98874 0.301576 0)
(9.97347 0.451824 0)
(9.95239 0.604471 0)
(9.92623 0.761204 0)
(9.89545 0.923559 0)
(9.86042 1.09301 0)
(9.82158 1.27098 0)
(9.77943 1.45886 0)
(9.73453 1.65804 0)
(9.68749 1.86989 0)
(9.639 2.09583 0)
(9.58985 2.33731 0)
(9.54093 2.59588 0)
(9.4933 2.87319 0)
(9.44819 3.17105 0)
(9.40708 3.49146 0)
(9.37179 3.83669 0)
(9.34463 4.20931 0)
(9.32857 4.61231 0)
(9.32753 5.0491 0)
(9.3468 5.52352 0)
(9.39364 6.03971 0)
(9.47795 6.60166 0)
(9.61293 7.21216 0)
(9.81542 7.87093 0)
(10.1082 8.57095 0)
(10.5 9.29762 0)
(11.0579 10.0409 0)
(11.8516 10.6876 0)
(9.99792 0.154948 0)
(9.99101 0.307994 0)
(9.97884 0.46135 0)
(9.96212 0.617021 0)
(9.9415 0.776673 0)
(9.91746 0.941812 0)
(9.8904 1.11387 0)
(9.86082 1.29424 0)
(9.82929 1.48425 0)
(9.79642 1.68521 0)
(9.76294 1.89842 0)
(9.72965 2.12518 0)
(9.69749 2.36684 0)
(9.66751 2.62476 0)
(9.64098 2.9004 0)
(9.61939 3.1953 0)
(9.6045 3.5111 0)
(9.5985 3.8496 0)
(9.60408 4.2127 0)
(9.62463 4.60248 0)
(9.66446 5.02102 0)
(9.72911 5.47035 0)
(9.82565 5.9521 0)
(9.96305 6.46698 0)
(10.1524 7.01393 0)
(10.4067 7.58909 0)
(10.7434 8.18438 0)
(11.1741 8.78513 0)
(11.722 9.37976 0)
(12.4761 9.89335 0)
(9.99845 0.157521 0)
(9.9933 0.313084 0)
(9.98427 0.468871 0)
(9.97194 0.626857 0)
(9.9569 0.788676 0)
(9.93962 0.955794 0)
(9.92055 1.1296 0)
(9.90023 1.31141 0)
(9.87926 1.50249 0)
(9.85834 1.70407 0)
(9.83827 1.91733 0)
(9.81995 2.14347 0)
(9.80441 2.38364 0)
(9.79286 2.63904 0)
(9.78672 2.91087 0)
(9.78762 3.20036 0)
(9.79754 3.50875 0)
(9.81884 3.83728 0)
(9.85439 4.18719 0)
(9.90768 4.55961 0)
(9.983 4.95542 0)
(10.0856 5.37513 0)
(10.2217 5.81847 0)
(10.3991 6.28399 0)
(10.6264 6.76845 0)
(10.9133 7.26609 0)
(11.2713 7.76769 0)
(11.7082 8.2577 0)
(12.2249 8.71941 0)
(12.9019 9.11127 0)
(9.99898 0.15939 0)
(9.9956 0.316769 0)
(9.98971 0.474272 0)
(9.98176 0.633831 0)
(9.97229 0.797034 0)
(9.96174 0.965296 0)
(9.9506 1.13994 0)
(9.93943 1.32222 0)
(9.92888 1.51331 0)
(9.9197 1.71433 0)
(9.91273 1.92636 0)
(9.90895 2.15042 0)
(9.90948 2.38752 0)
(9.9156 2.63861 0)
(9.9288 2.90464 0)
(9.95082 3.18649 0)
(9.9837 3.48498 0)
(10.0299 3.80084 0)
(10.0921 4.13463 0)
(10.1738 4.48664 0)
(10.2789 4.85679 0)
(10.4121 5.24437 0)
(10.5785 5.64782 0)
(10.7843 6.06433 0)
(11.0357 6.48942 0)
(11.3393 6.9164 0)
(11.7011 7.33591 0)
(12.1253 7.73453 0)
(12.606 8.09767 0)
(13.2124 8.40475 0)
(9.99951 0.160521 0)
(9.99789 0.318982 0)
(9.9951 0.477456 0)
(9.99151 0.637817 0)
(9.98753 0.801596 0)
(9.98362 0.970145 0)
(9.98028 1.14472 0)
(9.97808 1.32648 0)
(9.97769 1.51651 0)
(9.9799 1.71581 0)
(9.98559 1.92533 0)
(9.99577 2.14594 0)
(10.0116 2.37844 0)
(10.0344 2.62358 0)
(10.0656 2.882 0)
(10.1071 3.15427 0)
(10.1608 3.4408 0)
(10.229 3.74182 0)
(10.3145 4.05732 0)
(10.4202 4.38694 0)
(10.5495 4.72979 0)
(10.7063 5.08438 0)
(10.8947 5.44831 0)
(11.1191 5.81806 0)
(11.3838 6.18873 0)
(11.6925 6.55375 0)
(12.0482 6.90484 0)
(12.4523 7.23166 0)
(12.8973 7.52304 0)
(13.4412 7.76762 0)
(10 0.160885 0)
(10.0001 0.319669 0)
(10.0004 0.478345 0)
(10.0011 0.638715 0)
(10.0025 0.802245 0)
(10.0051 0.970212 0)
(10.0093 1.14379 0)
(10.0158 1.32405 0)
(10.0252 1.51197 0)
(10.0384 1.70843 0)
(10.0561 1.91423 0)
(10.0795 2.13008 0)
(10.1097 2.35659 0)
(10.1479 2.59428 0)
(10.1957 2.84353 0)
(10.2548 3.10458 0)
(10.327 3.3775 0)
(10.4144 3.66211 0)
(10.5195 3.95791 0)
(10.6447 4.26403 0)
(10.793 4.57908 0)
(10.9673 4.90104 0)
(11.1707 5.22713 0)
(11.4061 5.55363 0)
(11.6761 5.87578 0)
(11.9826 6.18773 0)
(12.3264 6.48258 0)
(12.7073 6.75251 0)
(13.1175 6.98912 0)
(13.6061 7.18555 0)
(10.0005 0.160462 0)
(10.0023 0.318787 0)
(10.0056 0.476877 0)
(10.0104 0.636451 0)
(10.0171 0.798896 0)
(10.0259 0.965412 0)
(10.0375 1.13708 0)
(10.0523 1.31487 0)
(10.0711 1.49966 0)
(10.0946 1.6922 0)
(10.1237 1.89314 0)
(10.1594 2.10303 0)
(10.2028 2.3223 0)
(10.2552 2.55124 0)
(10.3179 2.79001 0)
(10.3926 3.03856 0)
(10.4808 3.29666 0)
(10.5845 3.56379 0)
(10.7057 3.83912 0)
(10.8464 4.12142 0)
(11.009 4.40901 0)
(11.1955 4.69961 0)
(11.4081 4.99036 0)
(11.6486 5.27766 0)
(11.9182 5.55723 0)
(12.2176 5.82407 0)
(12.5464 6.07264 0)
(12.9032 6.29703 0)
(13.2809 6.49118 0)
(13.7214 6.6509 0)
(10.001 0.159235 0)
(10.0044 0.316307 0)
(10.0106 0.473014 0)
(10.0194 0.630979 0)
(10.0311 0.791506 0)
(10.0459 0.955706 0)
(10.0645 1.12457 0)
(10.0872 1.29896 0)
(10.1148 1.47964 0)
(10.148 1.66724 0)
(10.1877 1.86228 0)
(10.2348 2.06513 0)
(10.2902 2.27606 0)
(10.3553 2.49518 0)
(10.4312 2.72241 0)
(10.5194 2.9575 0)
(10.6212 3.19996 0)
(10.7383 3.44905 0)
(10.8724 3.70369 0)
(11.0249 3.96246 0)
(11.1976 4.22352 0)
(11.392 4.48459 0)
(11.6093 4.7429 0)
(11.8505 4.99518 0)
(12.1158 5.23771 0)
(12.4052 5.46638 0)
(12.7174 5.67685 0)
(13.0505 5.86477 0)
(13.3985 6.02586 0)
(13.7978 6.15762 0)
(10.0015 0.157199 0)
(10.0065 0.312216 0)
(10.0154 0.466737 0)
(10.028 0.622282 0)
(10.0445 0.780064 0)
(10.065 0.941104 0)
(10.0901 1.10629 0)
(10.1203 1.27639 0)
(10.1561 1.45205 0)
(10.1983 1.63378 0)
(10.2476 1.82196 0)
(10.305 2.01684 0)
(10.3713 2.21851 0)
(10.4475 2.42692 0)
(10.5349 2.64182 0)
(10.6345 2.8628 0)
(10.7476 3.08918 0)
(10.8755 3.32006 0)
(11.0194 3.55423 0)
(11.1805 3.79019 0)
(11.3599 4.0261 0)
(11.5586 4.25977 0)
(11.777 4.48866 0)
(12.0157 4.70992 0)
(12.2742 4.92042 0)
(12.5518 5.11688 0)
(12.8471 5.29598 0)
(13.158 5.45455 0)
(13.4791 5.58964 0)
(13.843 5.69977 0)
(10.0019 0.15435 0)
(10.0084 0.306512 0)
(10.0199 0.458049 0)
(10.0362 0.610373 0)
(10.0571 0.764601 0)
(10.083 0.92166 0)
(10.1142 1.08234 0)
(10.1513 1.24731 0)
(10.1947 1.41711 0)
(10.2451 1.59212 0)
(10.3031 1.77261 0)
(10.3696 1.9587 0)
(10.4454 2.15036 0)
(10.5314 2.34739 0)
(10.6284 2.54943 0)
(10.7376 2.75592 0)
(10.8598 2.96607 0)
(10.996 3.1789 0)
(11.1471 3.39316 0)
(11.314 3.60734 0)
(11.4972 3.81971 0)
(11.6972 4.02823 0)
(11.9143 4.23068 0)
(12.1481 4.42463 0)
(12.3982 4.60753 0)
(12.6633 4.7768 0)
(12.942 4.92996 0)
(13.2322 5.06471 0)
(13.5295 5.17907 0)
(13.8628 5.27218 0)
(10.0024 0.150696 0)
(10.0102 0.299209 0)
(10.0241 0.446974 0)
(10.0438 0.595293 0)
(10.0689 0.745181 0)
(10.0998 0.897473 0)
(10.1366 1.05286 0)
(10.18 1.21192 0)
(10.2302 1.37507 0)
(10.288 1.54262 0)
(10.3538 1.71471 0)
(10.4284 1.89135 0)
(10.5124 2.07242 0)
(10.6066 2.2576 0)
(10.7117 2.44644 0)
(10.8285 2.6383 0)
(10.9578 2.83234 0)
(11.1001 3.02754 0)
(11.2562 3.22267 0)
(11.4264 3.41631 0)
(11.6111 3.60684 0)
(11.8104 3.79247 0)
(12.0241 3.97129 0)
(12.2517 4.14128 0)
(12.4923 4.3004 0)
(12.7448 4.44666 0)
(13.0076 4.57822 0)
(13.2789 4.69346 0)
(13.5548 4.79106 0)
(13.8616 4.87058 0)
(10.0027 0.146249 0)
(10.0119 0.290332 0)
(10.0281 0.433557 0)
(10.0508 0.577107 0)
(10.0798 0.721902 0)
(10.1152 0.86868 0)
(10.1572 1.01805 0)
(10.2063 1.17047 0)
(10.2627 1.3263 0)
(10.327 1.48572 0)
(10.3996 1.64881 0)
(10.4811 1.81548 0)
(10.5721 1.98552 0)
(10.6731 2.15855 0)
(10.7847 2.33406 0)
(10.9076 2.51136 0)
(11.042 2.6896 0)
(11.1886 2.86777 0)
(11.3477 3.04472 0)
(11.5194 3.21914 0)
(11.7037 3.38957 0)
(11.9006 3.55447 0)
(12.1095 3.71223 0)
(12.3299 3.86122 0)
(12.5607 3.99982 0)
(12.8008 4.12652 0)
(13.0486 4.23998 0)
(13.3026 4.33907 0)
(13.5594 4.42293 0)
(13.8433 4.49139 0)
(10.0031 0.141027 0)
(10.0134 0.279921 0)
(10.0317 0.417858 0)
(10.0573 0.555907 0)
(10.0898 0.69489 0)
(10.1293 0.835455 0)
(10.1759 0.978117 0)
(10.2301 1.12326 0)
(10.2919 1.27115 0)
(10.3619 1.4219 0)
(10.4404 1.57549 0)
(10.5278 1.73179 0)
(10.6245 1.89052 0)
(10.7311 2.05126 0)
(10.8478 2.21345 0)
(10.9751 2.37641 0)
(11.1132 2.53931 0)
(11.2624 2.70119 0)
(11.4228 2.86099 0)
(11.5944 3.01753 0)
(11.777 3.16955 0)
(11.9702 3.31574 0)
(12.1735 3.45477 0)
(12.3861 3.58532 0)
(12.6071 3.70616 0)
(12.8352 3.81615 0)
(13.0691 3.91432 0)