# vtk DataFile Version 2.0

ASCII

DATASET UNSTRUCTURED_GRID

POINTS 58 float 

5.0000000000000003e-02  0.0000000000000000e+00  1.0000000000000000e+00
-5.0000000000000003e-02  0.0000000000000000e+00  1.0000000000000000e+00
-5.0000000000000003e-02  2.9999999999999999e-01  1.0000000000000000e+00
5.0000000000000003e-02  2.9999999999999999e-01  1.0000000000000000e+00
5.0000000000000003e-02  0.0000000000000000e+00  8.0000000000000004e-01
-5.0000000000000003e-02  0.0000000000000000e+00  8.0000000000000004e-01
-5.0000000000000003e-02  2.9999999999999999e-01  8.0000000000000004e-01
5.0000000000000003e-02  2.9999999999999999e-01  8.0000000000000004e-01
0.0000000000000000e+00  0.0000000000000000e+00  1.0000000000000000e+00
-5.0000000000000003e-02  1.4999999999999999e-01  1.0000000000000000e+00
0.0000000000000000e+00  2.9999999999999999e-01  1.0000000000000000e+00
5.0000000000000003e-02  1.4999999999999999e-01  1.0000000000000000e+00
5.0000000000000003e-02  0.0000000000000000e+00  9.0000000000000002e-01
-5.0000000000000003e-02  0.0000000000000000e+00  9.0000000000000002e-01
-5.0000000000000003e-02  2.9999999999999999e-01  9.0000000000000002e-01
5.0000000000000003e-02  2.9999999999999999e-01  9.0000000000000002e-01
-5.0000000000000003e-02  1.4999999999999999e-01  8.0000000000000004e-01
5.0000000000000003e-02  1.4999999999999999e-01  8.0000000000000004e-01
5.0000000000000003e-02  0.0000000000000000e+00  5.9999999999999998e-01
-5.0000000000000003e-02  0.0000000000000000e+00  5.9999999999999998e-01
-5.0000000000000003e-02  2.9999999999999999e-01  5.9999999999999998e-01
5.0000000000000003e-02  2.9999999999999999e-01  5.9999999999999998e-01
5.0000000000000003e-02  0.0000000000000000e+00  6.9999999999999996e-01
-5.0000000000000003e-02  0.0000000000000000e+00  6.9999999999999996e-01
-5.0000000000000003e-02  2.9999999999999999e-01  6.9999999999999996e-01
5.0000000000000003e-02  2.9999999999999999e-01  6.9999999999999996e-01
-5.0000000000000003e-02  1.4999999999999999e-01  5.9999999999999998e-01
5.0000000000000003e-02  1.4999999999999999e-01  5.9999999999999998e-01
5.0000000000000003e-02  0.0000000000000000e+00  4.0000000000000002e-01
-5.0000000000000003e-02  0.0000000000000000e+00  4.0000000000000002e-01
-5.0000000000000003e-02  2.9999999999999999e-01  4.0000000000000002e-01
5.0000000000000003e-02  2.9999999999999999e-01  4.0000000000000002e-01
5.0000000000000003e-02  0.0000000000000000e+00  5.0000000000000000e-01
-5.0000000000000003e-02  0.0000000000000000e+00  5.0000000000000000e-01
-5.0000000000000003e-02  2.9999999999999999e-01  5.0000000000000000e-01
5.0000000000000003e-02  2.9999999999999999e-01  5.0000000000000000e-01
-5.0000000000000003e-02  1.4999999999999999e-01  4.0000000000000002e-01
5.0000000000000003e-02  1.4999999999999999e-01  4.0000000000000002e-01
5.0000000000000003e-02  0.0000000000000000e+00  2.0000000000000001e-01
-5.0000000000000003e-02  0.0000000000000000e+00  2.0000000000000001e-01
-5.0000000000000003e-02  2.9999999999999999e-01  2.0000000000000001e-01
5.0000000000000003e-02  2.9999999999999999e-01  2.0000000000000001e-01
5.0000000000000003e-02  0.0000000000000000e+00  2.9999999999999999e-01
-5.0000000000000003e-02  0.0000000000000000e+00  2.9999999999999999e-01
-5.0000000000000003e-02  2.9999999999999999e-01  2.9999999999999999e-01
5.0000000000000003e-02  2.9999999999999999e-01  2.9999999999999999e-01
-5.0000000000000003e-02  1.4999999999999999e-01  2.0000000000000001e-01
5.0000000000000003e-02  1.4999999999999999e-01  2.0000000000000001e-01
5.0000000000000003e-02  0.0000000000000000e+00  0.0000000000000000e+00
-5.0000000000000003e-02  0.0000000000000000e+00  0.0000000000000000e+00
-5.0000000000000003e-02  2.9999999999999999e-01  0.0000000000000000e+00
5.0000000000000003e-02  2.9999999999999999e-01  0.0000000000000000e+00
5.0000000000000003e-02  0.0000000000000000e+00  1.0000000000000001e-01
-5.0000000000000003e-02  0.0000000000000000e+00  1.0000000000000001e-01
-5.0000000000000003e-02  2.9999999999999999e-01  1.0000000000000001e-01
5.0000000000000003e-02  2.9999999999999999e-01  1.0000000000000001e-01
-5.0000000000000003e-02  1.4999999999999999e-01  0.0000000000000000e+00
5.0000000000000003e-02  1.4999999999999999e-01  0.0000000000000000e+00

CELLS 0 0


CELL_TYPES 0


POINT_DATA 58

VECTORS VertexNormals float

0.0000000000000000e+00 0.0000000000000000e+00 0.0000000000000000e+00 
0.0000000000000000e+00 0.0000000000000000e+00 0.0000000000000000e+00 
0.0000000000000000e+00 0.0000000000000000e+00 0.0000000000000000e+00 
0.0000000000000000e+00 0.0000000000000000e+00 0.0000000000000000e+00 
0.0000000000000000e+00 0.0000000000000000e+00 0.0000000000000000e+00 
0.0000000000000000e+00 0.0000000000000000e+00 0.0000000000000000e+00 
0.0000000000000000e+00 0.0000000000000000e+00 0.0000000000000000e+00 
0.0000000000000000e+00 0.0000000000000000e+00 0.0000000000000000e+00 
0.0000000000000000e+00 0.0000000000000000e+00 0.0000000000000000e+00 
0.0000000000000000e+00 0.0000000000000000e+00 0.0000000000000000e+00 
0.0000000000000000e+00 0.0000000000000000e+00 0.0000000000000000e+00 
0.0000000000000000e+00 0.0000000000000000e+00 0.0000000000000000e+00 
0.0000000000000000e+00 0.0000000000000000e+00 0.0000000000000000e+00 
0.0000000000000000e+00 0.0000000000000000e+00 0.0000000000000000e+00 
0.0000000000000000e+00 0.0000000000000000e+00 0.0000000000000000e+00 
0.0000000000000000e+00 0.0000000000000000e+00 0.0000000000000000e+00 
0.0000000000000000e+00 0.0000000000000000e+00 0.0000000000000000e+00 
0.0000000000000000e+00 0.0000000000000000e+00 0.0000000000000000e+00 
0.0000000000000000e+00 0.0000000000000000e+00 0.0000000000000000e+00 
0.0000000000000000e+00 0.0000000000000000e+00 0.0000000000000000e+00 
0.0000000000000000e+00 0.0000000000000000e+00 0.0000000000000000e+00 
0.0000000000000000e+00 0.0000000000000000e+00 0.0000000000000000e+00 
0.0000000000000000e+00 0.0000000000000000e+00 0.0000000000000000e+00 
0.0000000000000000e+00 0.0000000000000000e+00 0.0000000000000000e+00 
0.0000000000000000e+00 0.0000000000000000e+00 0.0000000000000000e+00 
0.0000000000000000e+00 0.0000000000000000e+00 0.0000000000000000e+00 
0.0000000000000000e+00 0.0000000000000000e+00 0.0000000000000000e+00 
0.0000000000000000e+00 0.0000000000000000e+00 0.0000000000000000e+00 
0.0000000000000000e+00 0.0000000000000000e+00 0.0000000000000000e+00 
0.0000000000000000e+00 0.0000000000000000e+00 0.0000000000000000e+00 
0.0000000000000000e+00 0.0000000000000000e+00 0.0000000000000000e+00 
0.0000000000000000e+00 0.0000000000000000e+00 0.0000000000000000e+00 
0.0000000000000000e+00 0.0000000000000000e+00 0.0000000000000000e+00 
0.0000000000000000e+00 0.0000000000000000e+00 0.0000000000000000e+00 
0.0000000000000000e+00 0.0000000000000000e+00 0.0000000000000000e+00 
0.0000000000000000e+00 0.0000000000000000e+00 0.0000000000000000e+00 
0.0000000000000000e+00 0.0000000000000000e+00 0.0000000000000000e+00 
0.0000000000000000e+00 0.0000000000000000e+00 0.0000000000000000e+00 
0.0000000000000000e+00 0.0000000000000000e+00 0.0000000000000000e+00 
0.0000000000000000e+00 0.0000000000000000e+00 0.0000000000000000e+00 
0.0000000000000000e+00 0.0000000000000000e+00 0.0000000000000000e+00 
0.0000000000000000e+00 0.0000000000000000e+00 0.0000000000000000e+00 
0.0000000000000000e+00 0.0000000000000000e+00 0.0000000000000000e+00 
0.0000000000000000e+00 0.0000000000000000e+00 0.0000000000000000e+00 
0.0000000000000000e+00 0.0000000000000000e+00 0.0000000000000000e+00 
0.0000000000000000e+00 0.0000000000000000e+00 0.0000000000000000e+00 
0.0000000000000000e+00 0.0000000000000000e+00 0.0000000000000000e+00 
0.0000000000000000e+00 0.0000000000000000e+00 0.0000000000000000e+00 
0.0000000000000000e+00 0.0000000000000000e+00 0.0000000000000000e+00 
0.0000000000000000e+00 0.0000000000000000e+00 0.0000000000000000e+00 
0.0000000000000000e+00 0.0000000000000000e+00 0.0000000000000000e+00 
0.0000000000000000e+00 0.0000000000000000e+00 0.0000000000000000e+00 
0.0000000000000000e+00 0.0000000000000000e+00 0.0000000000000000e+00 
0.0000000000000000e+00 0.0000000000000000e+00 0.0000000000000000e+00 
0.0000000000000000e+00 0.0000000000000000e+00 0.0000000000000000e+00 
0.0000000000000000e+00 0.0000000000000000e+00 0.0000000000000000e+00 
0.0000000000000000e+00 0.0000000000000000e+00 0.0000000000000000e+00 
0.0000000000000000e+00 0.0000000000000000e+00 0.0000000000000000e+00 

VECTORS DisplacementDeltas0 float
-3.1118230637665072e-319 0.0000000000000000e+00 0.0000000000000000e+00 
4.3398671407236133e-02 0.0000000000000000e+00 -3.7794364915847506e-02 
4.3296908217334201e-02 0.0000000000000000e+00 -3.7205128989764066e-02 
2.9225796837603110e-02 0.0000000000000000e+00 -4.1482614157117396e-02 
1.7829635390054201e-02 0.0000000000000000e+00 -1.5952538060027530e-02 
2.9816557012008020e-02 0.0000000000000000e+00 -1.0639919161657256e-02 
2.9729584359553779e-02 0.0000000000000000e+00 -9.4166934994772168e-03 
1.8214154985182814e-02 0.0000000000000000e+00 -1.5297837503670843e-02 
3.6545031714875470e-02 0.0000000000000000e+00 -4.0546650112929412e-02 
4.2981012531933038e-02 0.0000000000000000e+00 -3.8059563351933216e-02 
3.6213213590791660e-02 0.0000000000000000e+00 -3.9521924314308461e-02 
2.9254475742259797e-02 0.0000000000000000e+00 -4.3482470856790134e-02 
2.3407485594940297e-02 0.0000000000000000e+00 -2.9391315279852268e-02 
3.6962264898009509e-02 0.0000000000000000e+00 -2.4661001153677711e-02 
3.7406790634935322e-02 0.0000000000000000e+00 -2.3192372732588479e-02 
2.3969263166355601e-02 0.0000000000000000e+00 -2.7887826299238389e-02 
2.9554744769753026e-02 0.0000000000000000e+00 -1.0575174989503588e-02 
1.7731542692587705e-02 0.0000000000000000e+00 -1.5556051213592478e-02 
4.9363536393859939e-03 0.0000000000000000e+00 -1.2030269505327101e-03 
8.8070528207157169e-03 0.0000000000000000e+00 5.3355684808124495e-03 
8.6129365983100836e-03 0.0000000000000000e+00 5.2715480314310141e-03 
4.9906794505241610e-03 0.0000000000000000e+00 -1.0555318005904969e-03 
1.1615642100124252e-02 0.0000000000000000e+00 -6.6086921247379953e-03 
1.9859636229351819e-02 0.0000000000000000e+00 6.2859983028285861e-04 
1.9522080490174256e-02 0.0000000000000000e+00 1.0476777238084996e-03 
1.1629776172578057e-02 0.0000000000000000e+00 -6.3212465357536263e-03 
8.6245292171643496e-03 0.0000000000000000e+00 5.3741240877923507e-03 
4.7799551885642074e-03 0.0000000000000000e+00 -1.4674850741820443e-03 
-1.8355319132715628e-03 0.0000000000000000e+00 1.8688217647850848e-03 
-1.1787368908698739e-03 0.0000000000000000e+00 2.8642377292056823e-03 
-1.1985515056043697e-03 0.0000000000000000e+00 2.9805189488012335e-03 
-1.8254838844419677e-03 0.0000000000000000e+00 1.8038236626243052e-03 
4.6625799471184987e-04 0.0000000000000000e+00 9.8626905730494216e-04 
1.5000160254932328e-03 0.0000000000000000e+00 4.7935442321230424e-03 
1.5637681307115333e-03 0.0000000000000000e+00 4.8908114624281861e-03 
5.1092833449663927e-04 0.0000000000000000e+00 9.7854452669023919e-04 
-1.3844706056381953e-03 0.0000000000000000e+00 2.9414349725476450e-03 
-1.9825828773510912e-03 0.0000000000000000e+00 1.7125244075391506e-03 
-1.1178860835027303e-03 0.0000000000000000e+00 1.2341255514452423e-03 
-9.2493980308545171e-04 0.0000000000000000e+00 6.0621412356901124e-04 
-8.3798801297380130e-04 0.0000000000000000e+00 5.8919240585884414e-04 
-1.0622867438983309e-03 0.0000000000000000e+00 1.2571313739255592e-03 
-1.7456681130471484e-03 0.0000000000000000e+00 1.6301316343940188e-03 
-1.5020084390434767e-03 0.0000000000000000e+00 1.3805963645682228e-03 
-1.5261499639045147e-03 0.0000000000000000e+00 1.3456072154072280e-03 
-1.7749531059758905e-03 0.0000000000000000e+00 1.7893509811920815e-03 
-9.5697629643811560e-04 0.0000000000000000e+00 6.0876704063848072e-04 
-1.2160233921023555e-03 0.0000000000000000e+00 1.4819894021642817e-03 
0.0000000000000000e+00 0.0000000000000000e+00 0.0000000000000000e+00 
0.0000000000000000e+00 0.0000000000000000e+00 0.0000000000000000e+00 
0.0000000000000000e+00 0.0000000000000000e+00 0.0000000000000000e+00 
0.0000000000000000e+00 0.0000000000000000e+00 0.0000000000000000e+00 
-3.5125136746531069e-04 0.0000000000000000e+00 5.4241999174477217e-04 
-1.0211399198912043e-04 0.0000000000000000e+00 1.7762583652600308e-04 
-1.4615085797683807e-04 0.0000000000000000e+00 2.9622994627551358e-04 
-3.8307636593247517e-04 0.0000000000000000e+00 4.8791815757140899e-04 
0.0000000000000000e+00 0.0000000000000000e+00 0.0000000000000000e+00 
0.0000000000000000e+00 0.0000000000000000e+00 0.0000000000000000e+00 

VECTORS Forces0 float
2.7009332852234595e+00 -3.3009312769705805e+00 -2.2628058096242634e+00 
2.1407816778467890e+00 2.7410022654154093e-01 1.7996911046286310e-01 
-4.9556011835161085e-01 -2.1811315940310880e-01 1.5484192042987741e+00 
-2.5598363034568750e+00 3.1306873441077956e+00 2.1549315293051654e+00 
1.6416238911185524e-01 -2.2492159455327360e-02 -2.5687273773748666e-02 
-5.7452168688692034e+00 -2.0152310072037211e-01 7.7719297147418285e+00 
-4.2289289194867647e+00 -1.4743270523493626e-01 5.6392732323655714e+00 
-4.3862584408766192e-01 7.9041466920753756e-02 3.6644463351361684e-01 
0.0000000000000000e+00 0.0000000000000000e+00 0.0000000000000000e+00 
0.0000000000000000e+00 0.0000000000000000e+00 0.0000000000000000e+00 
0.0000000000000000e+00 0.0000000000000000e+00 0.0000000000000000e+00 
0.0000000000000000e+00 0.0000000000000000e+00 0.0000000000000000e+00 
0.0000000000000000e+00 0.0000000000000000e+00 0.0000000000000000e+00 
0.0000000000000000e+00 0.0000000000000000e+00 0.0000000000000000e+00 
0.0000000000000000e+00 0.0000000000000000e+00 0.0000000000000000e+00 
0.0000000000000000e+00 0.0000000000000000e+00 0.0000000000000000e+00 
0.0000000000000000e+00 0.0000000000000000e+00 0.0000000000000000e+00 
0.0000000000000000e+00 0.0000000000000000e+00 0.0000000000000000e+00 
-5.1106007381059582e-01 -1.2854691746486417e-03 2.3798981614079284e-01 
4.6604176425712867e+00 1.7088744798141913e-02 -2.3092926065082180e+00 
4.4342993758290898e+00 1.6218289580606993e-02 -2.1480413470564566e+00 
5.3879612398940013e-01 1.3305996681291855e-03 -2.4568406822903494e-01 
0.0000000000000000e+00 0.0000000000000000e+00 0.0000000000000000e+00 
0.0000000000000000e+00 0.0000000000000000e+00 0.0000000000000000e+00 
0.0000000000000000e+00 0.0000000000000000e+00 0.0000000000000000e+00 
0.0000000000000000e+00 0.0000000000000000e+00 0.0000000000000000e+00 
0.0000000000000000e+00 0.0000000000000000e+00 0.0000000000000000e+00 
0.0000000000000000e+00 0.0000000000000000e+00 0.0000000000000000e+00 
8.3934364370512116e-01 -2.5714087798544725e-04 -4.9368796235756754e-02 
2.4265384158362808e+00 4.8957179340574854e-05 -1.8812487408695008e-01 
2.3957056675730031e+00 4.8370501448439798e-05 -1.8560939187264017e-01 
6.6109475897807368e-01 -2.0261324039296723e-04 -3.9190658073468103e-02 
0.0000000000000000e+00 0.0000000000000000e+00 0.0000000000000000e+00 
0.0000000000000000e+00 0.0000000000000000e+00 0.0000000000000000e+00 
0.0000000000000000e+00 0.0000000000000000e+00 0.0000000000000000e+00 
0.0000000000000000e+00 0.0000000000000000e+00 0.0000000000000000e+00 
0.0000000000000000e+00 0.0000000000000000e+00 0.0000000000000000e+00 
0.0000000000000000e+00 0.0000000000000000e+00 0.0000000000000000e+00 
-2.4308796955212061e-01 -1.4442594360382117e-06 -1.3743762431904275e-03 
2.5827518903959401e+00 1.3303423188110828e-04 4.1995766033086366e-03 
2.5753461308885739e+00 1.3265137102724188e-04 4.1913834161543522e-03 
-2.3156486766869466e-01 -1.3747891672876953e-06 -1.2895576617079579e-03 
0.0000000000000000e+00 0.0000000000000000e+00 0.0000000000000000e+00 
0.0000000000000000e+00 0.0000000000000000e+00 0.0000000000000000e+00 
0.0000000000000000e+00 0.0000000000000000e+00 0.0000000000000000e+00 
0.0000000000000000e+00 0.0000000000000000e+00 0.0000000000000000e+00 
0.0000000000000000e+00 0.0000000000000000e+00 0.0000000000000000e+00 
0.0000000000000000e+00 0.0000000000000000e+00 0.0000000000000000e+00 
1.0374289657661181e-01 1.1831161503160118e-06 -6.1211914566079641e-04 
1.1104460439578601e+00 1.8705919022203324e-05 -1.0563310630861916e-02 
1.1083498248022927e+00 1.8671146209134506e-05 -1.0487844931972074e-02 
9.7620854614952596e-02 1.1132957424574160e-06 -5.7269245651826067e-04 
0.0000000000000000e+00 0.0000000000000000e+00 0.0000000000000000e+00 
0.0000000000000000e+00 0.0000000000000000e+00 0.0000000000000000e+00 
0.0000000000000000e+00 0.0000000000000000e+00 0.0000000000000000e+00 
0.0000000000000000e+00 0.0000000000000000e+00 0.0000000000000000e+00 
0.0000000000000000e+00 0.0000000000000000e+00 0.0000000000000000e+00 
0.0000000000000000e+00 0.0000000000000000e+00 0.0000000000000000e+00 

