# vtk DataFile Version 2.0

ASCII

DATASET UNSTRUCTURED_GRID

POINTS 58 float 

5.0000000000000003e-02  0.0000000000000000e+00  1.0000000000000000e+00
-5.0000000000000003e-02  0.0000000000000000e+00  1.0000000000000000e+00
-5.0000000000000003e-02  2.9999999999999999e-01  1.0000000000000000e+00
5.0000000000000003e-02  2.9999999999999999e-01  1.0000000000000000e+00
5.0000000000000003e-02  0.0000000000000000e+00  8.0000000000000004e-01
-5.0000000000000003e-02  0.0000000000000000e+00  8.0000000000000004e-01
-5.0000000000000003e-02  2.9999999999999999e-01  8.0000000000000004e-01
5.0000000000000003e-02  2.9999999999999999e-01  8.0000000000000004e-01
0.0000000000000000e+00  0.0000000000000000e+00  1.0000000000000000e+00
-5.0000000000000003e-02  1.4999999999999999e-01  1.0000000000000000e+00
0.0000000000000000e+00  2.9999999999999999e-01  1.0000000000000000e+00
5.0000000000000003e-02  1.4999999999999999e-01  1.0000000000000000e+00
5.0000000000000003e-02  0.0000000000000000e+00  9.0000000000000002e-01
-5.0000000000000003e-02  0.0000000000000000e+00  9.0000000000000002e-01
-5.0000000000000003e-02  2.9999999999999999e-01  9.0000000000000002e-01
5.0000000000000003e-02  2.9999999999999999e-01  9.0000000000000002e-01
-5.0000000000000003e-02  1.4999999999999999e-01  8.0000000000000004e-01
5.0000000000000003e-02  1.4999999999999999e-01  8.0000000000000004e-01
5.0000000000000003e-02  0.0000000000000000e+00  5.9999999999999998e-01
-5.0000000000000003e-02  0.0000000000000000e+00  5.9999999999999998e-01
-5.0000000000000003e-02  2.9999999999999999e-01  5.9999999999999998e-01
5.0000000000000003e-02  2.9999999999999999e-01  5.9999999999999998e-01
5.0000000000000003e-02  0.0000000000000000e+00  6.9999999999999996e-01
-5.0000000000000003e-02  0.0000000000000000e+00  6.9999999999999996e-01
-5.0000000000000003e-02  2.9999999999999999e-01  6.9999999999999996e-01
5.0000000000000003e-02  2.9999999999999999e-01  6.9999999999999996e-01
-5.0000000000000003e-02  1.4999999999999999e-01  5.9999999999999998e-01
5.0000000000000003e-02  1.4999999999999999e-01  5.9999999999999998e-01
5.0000000000000003e-02  0.0000000000000000e+00  4.0000000000000002e-01
-5.0000000000000003e-02  0.0000000000000000e+00  4.0000000000000002e-01
-5.0000000000000003e-02  2.9999999999999999e-01  4.0000000000000002e-01
5.0000000000000003e-02  2.9999999999999999e-01  4.0000000000000002e-01
5.0000000000000003e-02  0.0000000000000000e+00  5.0000000000000000e-01
-5.0000000000000003e-02  0.0000000000000000e+00  5.0000000000000000e-01
-5.0000000000000003e-02  2.9999999999999999e-01  5.0000000000000000e-01
5.0000000000000003e-02  2.9999999999999999e-01  5.0000000000000000e-01
-5.0000000000000003e-02  1.4999999999999999e-01  4.0000000000000002e-01
5.0000000000000003e-02  1.4999999999999999e-01  4.0000000000000002e-01
5.0000000000000003e-02  0.0000000000000000e+00  2.0000000000000001e-01
-5.0000000000000003e-02  0.0000000000000000e+00  2.0000000000000001e-01
-5.0000000000000003e-02  2.9999999999999999e-01  2.0000000000000001e-01
5.0000000000000003e-02  2.9999999999999999e-01  2.0000000000000001e-01
5.0000000000000003e-02  0.0000000000000000e+00  2.9999999999999999e-01
-5.0000000000000003e-02  0.0000000000000000e+00  2.9999999999999999e-01
-5.0000000000000003e-02  2.9999999999999999e-01  2.9999999999999999e-01
5.0000000000000003e-02  2.9999999999999999e-01  2.9999999999999999e-01
-5.0000000000000003e-02  1.4999999999999999e-01  2.0000000000000001e-01
5.0000000000000003e-02  1.4999999999999999e-01  2.0000000000000001e-01
5.0000000000000003e-02  0.0000000000000000e+00  0.0000000000000000e+00
-5.0000000000000003e-02  0.0000000000000000e+00  0.0000000000000000e+00
-5.0000000000000003e-02  2.9999999999999999e-01  0.0000000000000000e+00
5.0000000000000003e-02  2.9999999999999999e-01  0.0000000000000000e+00
5.0000000000000003e-02  0.0000000000000000e+00  1.0000000000000001e-01
-5.0000000000000003e-02  0.0000000000000000e+00  1.0000000000000001e-01
-5.0000000000000003e-02  2.9999999999999999e-01  1.0000000000000001e-01
5.0000000000000003e-02  2.9999999999999999e-01  1.0000000000000001e-01
-5.0000000000000003e-02  1.4999999999999999e-01  0.0000000000000000e+00
5.0000000000000003e-02  1.4999999999999999e-01  0.0000000000000000e+00

CELLS 0 0


CELL_TYPES 0


POINT_DATA 58

VECTORS VertexNormals float

0.0000000000000000e+00 0.0000000000000000e+00 0.0000000000000000e+00 
0.0000000000000000e+00 0.0000000000000000e+00 0.0000000000000000e+00 
0.0000000000000000e+00 0.0000000000000000e+00 0.0000000000000000e+00 
0.0000000000000000e+00 0.0000000000000000e+00 0.0000000000000000e+00 
0.0000000000000000e+00 0.0000000000000000e+00 0.0000000000000000e+00 
0.0000000000000000e+00 0.0000000000000000e+00 0.0000000000000000e+00 
0.0000000000000000e+00 0.0000000000000000e+00 0.0000000000000000e+00 
0.0000000000000000e+00 0.0000000000000000e+00 0.0000000000000000e+00 
0.0000000000000000e+00 0.0000000000000000e+00 0.0000000000000000e+00 
0.0000000000000000e+00 0.0000000000000000e+00 0.0000000000000000e+00 
0.0000000000000000e+00 0.0000000000000000e+00 0.0000000000000000e+00 
0.0000000000000000e+00 0.0000000000000000e+00 0.0000000000000000e+00 
0.0000000000000000e+00 0.0000000000000000e+00 0.0000000000000000e+00 
0.0000000000000000e+00 0.0000000000000000e+00 0.0000000000000000e+00 
0.0000000000000000e+00 0.0000000000000000e+00 0.0000000000000000e+00 
0.0000000000000000e+00 0.0000000000000000e+00 0.0000000000000000e+00 
0.0000000000000000e+00 0.0000000000000000e+00 0.0000000000000000e+00 
0.0000000000000000e+00 0.0000000000000000e+00 0.0000000000000000e+00 
0.0000000000000000e+00 0.0000000000000000e+00 0.0000000000000000e+00 
0.0000000000000000e+00 0.0000000000000000e+00 0.0000000000000000e+00 
0.0000000000000000e+00 0.0000000000000000e+00 0.0000000000000000e+00 
0.0000000000000000e+00 0.0000000000000000e+00 0.0000000000000000e+00 
0.0000000000000000e+00 0.0000000000000000e+00 0.0000000000000000e+00 
0.0000000000000000e+00 0.0000000000000000e+00 0.0000000000000000e+00 
0.0000000000000000e+00 0.0000000000000000e+00 0.0000000000000000e+00 
0.0000000000000000e+00 0.0000000000000000e+00 0.0000000000000000e+00 
0.0000000000000000e+00 0.0000000000000000e+00 0.0000000000000000e+00 
0.0000000000000000e+00 0.0000000000000000e+00 0.0000000000000000e+00 
0.0000000000000000e+00 0.0000000000000000e+00 0.0000000000000000e+00 
0.0000000000000000e+00 0.0000000000000000e+00 0.0000000000000000e+00 
0.0000000000000000e+00 0.0000000000000000e+00 0.0000000000000000e+00 
0.0000000000000000e+00 0.0000000000000000e+00 0.0000000000000000e+00 
0.0000000000000000e+00 0.0000000000000000e+00 0.0000000000000000e+00 
0.0000000000000000e+00 0.0000000000000000e+00 0.0000000000000000e+00 
0.0000000000000000e+00 0.0000000000000000e+00 0.0000000000000000e+00 
0.0000000000000000e+00 0.0000000000000000e+00 0.0000000000000000e+00 
0.0000000000000000e+00 0.0000000000000000e+00 0.0000000000000000e+00 
0.0000000000000000e+00 0.0000000000000000e+00 0.0000000000000000e+00 
0.0000000000000000e+00 0.0000000000000000e+00 0.0000000000000000e+00 
0.0000000000000000e+00 0.0000000000000000e+00 0.0000000000000000e+00 
0.0000000000000000e+00 0.0000000000000000e+00 0.0000000000000000e+00 
0.0000000000000000e+00 0.0000000000000000e+00 0.0000000000000000e+00 
0.0000000000000000e+00 0.0000000000000000e+00 0.0000000000000000e+00 
0.0000000000000000e+00 0.0000000000000000e+00 0.0000000000000000e+00 
0.0000000000000000e+00 0.0000000000000000e+00 0.0000000000000000e+00 
0.0000000000000000e+00 0.0000000000000000e+00 0.0000000000000000e+00 
0.0000000000000000e+00 0.0000000000000000e+00 0.0000000000000000e+00 
0.0000000000000000e+00 0.0000000000000000e+00 0.0000000000000000e+00 
0.0000000000000000e+00 0.0000000000000000e+00 0.0000000000000000e+00 
0.0000000000000000e+00 0.0000000000000000e+00 0.0000000000000000e+00 
0.0000000000000000e+00 0.0000000000000000e+00 0.0000000000000000e+00 
0.0000000000000000e+00 0.0000000000000000e+00 0.0000000000000000e+00 
0.0000000000000000e+00 0.0000000000000000e+00 0.0000000000000000e+00 
0.0000000000000000e+00 0.0000000000000000e+00 0.0000000000000000e+00 
0.0000000000000000e+00 0.0000000000000000e+00 0.0000000000000000e+00 
0.0000000000000000e+00 0.0000000000000000e+00 0.0000000000000000e+00 
0.0000000000000000e+00 0.0000000000000000e+00 0.0000000000000000e+00 
0.0000000000000000e+00 0.0000000000000000e+00 0.0000000000000000e+00 

VECTORS DisplacementDeltas0 float
-1.7348028209294522e-318 0.0000000000000000e+00 0.0000000000000000e+00 
8.9612964608565774e-03 0.0000000000000000e+00 3.8873292312129179e-05 
9.1292057579559199e-03 0.0000000000000000e+00 6.2068459603562432e-05 
8.0875940246688018e-03 0.0000000000000000e+00 -2.2498116846855669e-03 
3.6013146707014393e-03 0.0000000000000000e+00 -1.9916045412685639e-03 
3.6551254544683540e-03 0.0000000000000000e+00 1.0908547861837752e-03 
3.4158745249006275e-03 0.0000000000000000e+00 1.1708182569651702e-03 
3.4037131416076250e-03 0.0000000000000000e+00 -1.9826959756370469e-03 
8.7482749238448603e-03 0.0000000000000000e+00 -1.1305714276625279e-03 
9.3009680603940020e-03 0.0000000000000000e+00 4.9053008268484365e-04 
8.6744436480423771e-03 0.0000000000000000e+00 -1.2414227673249454e-03 
9.3658786168901859e-03 0.0000000000000000e+00 -2.7252168096792415e-03 
5.9321263435680796e-03 0.0000000000000000e+00 -2.1840106925115174e-03 
6.6484301681701777e-03 0.0000000000000000e+00 4.6898794669112580e-04 
6.3695169861696359e-03 0.0000000000000000e+00 8.2980272160022720e-04 
5.4820942923739843e-03 0.0000000000000000e+00 -2.1092971782980998e-03 
3.9786553671282837e-03 0.0000000000000000e+00 1.0012697769651484e-03 
3.5387096351945880e-03 0.0000000000000000e+00 -1.4973155016721361e-03 
4.4375595047123156e-04 0.0000000000000000e+00 -2.5009409021511746e-04 
6.7487202233827421e-04 0.0000000000000000e+00 1.3394929801905324e-04 
6.6282503758309562e-04 0.0000000000000000e+00 1.2280412458339976e-04 
4.0978880990757993e-04 0.0000000000000000e+00 -1.4063701212256444e-04 
1.4402284824179051e-03 0.0000000000000000e+00 -9.3693173270311065e-04 
1.4649567997282122e-03 0.0000000000000000e+00 7.8818824177349684e-04 
1.4581827569200155e-03 0.0000000000000000e+00 6.1682732524470283e-04 
1.4722521063635324e-03 0.0000000000000000e+00 -7.7756255811600890e-04 
6.2871142959404556e-04 0.0000000000000000e+00 2.4738032589318435e-04 
5.2345076400830124e-04 0.0000000000000000e+00 -2.1878216887286870e-04 
-9.0386017536114079e-05 0.0000000000000000e+00 1.6035291363935097e-04 
1.6836287960386937e-04 0.0000000000000000e+00 9.9886864592220692e-05 
2.7540130085206916e-04 0.0000000000000000e+00 4.4406541662923317e-05 
-3.1625205971495905e-05 0.0000000000000000e+00 1.2074257110194413e-04 
9.5439362852244676e-05 0.0000000000000000e+00 -1.1600302626366360e-05 
1.4657688481572355e-04 0.0000000000000000e+00 9.0164847444728174e-05 
1.0198537116756692e-04 0.0000000000000000e+00 1.3877140922530139e-04 
4.8077458646182984e-05 0.0000000000000000e+00 -4.8572026553620449e-05 
4.1626262555492853e-04 0.0000000000000000e+00 -5.6591167432729913e-05 
3.2885364949598135e-04 0.0000000000000000e+00 3.4731973266041900e-05 
1.6122866848798721e-04 0.0000000000000000e+00 -1.6836330211368432e-04 
2.2469423600263768e-04 0.0000000000000000e+00 -2.5695737587508706e-05 
1.8097402010021574e-04 0.0000000000000000e+00 -3.2420722503132915e-05 
8.3180897614000245e-05 0.0000000000000000e+00 -1.5463293523857829e-04 
1.3655502220301114e-04 0.0000000000000000e+00 -1.0640393756949158e-05 
2.4805371455996982e-04 0.0000000000000000e+00 -5.4658706370526921e-05 
2.3346333656737526e-04 0.0000000000000000e+00 -7.8019916150778639e-05 
1.5726086524144056e-04 0.0000000000000000e+00 -5.2963942349094022e-05 
4.2296838460833121e-04 0.0000000000000000e+00 4.1183545959463106e-05 
3.8418151772746630e-04 0.0000000000000000e+00 -1.6482281185805476e-04 
0.0000000000000000e+00 0.0000000000000000e+00 0.0000000000000000e+00 
0.0000000000000000e+00 0.0000000000000000e+00 0.0000000000000000e+00 
0.0000000000000000e+00 0.0000000000000000e+00 0.0000000000000000e+00 
0.0000000000000000e+00 0.0000000000000000e+00 0.0000000000000000e+00 
-1.8587429740057968e-05 0.0000000000000000e+00 -1.9220949825714525e-04 
-9.5084598470676282e-06 0.0000000000000000e+00 -1.1895292448162306e-05 
2.3455358628098489e-05 0.0000000000000000e+00 -7.0362616049749437e-05 
1.6101895638753944e-05 0.0000000000000000e+00 -2.1731276667482036e-04 
0.0000000000000000e+00 0.0000000000000000e+00 0.0000000000000000e+00 
0.0000000000000000e+00 0.0000000000000000e+00 0.0000000000000000e+00 

VECTORS Forces0 float
7.3777902501510120e+00 -7.8988840192232768e-01 2.4302465687818375e+00 
-2.6106760135570922e-01 -6.1711305728975418e-04 1.2813228904636517e-01 
-9.6781592798050542e-01 -2.6811172997591197e-03 6.0938050696003521e-01 
6.3320326923282808e+00 -6.7835389993582085e-01 2.0762892720132817e+00 
-1.8068486755174149e+00 3.0333688697330684e-02 3.8193558861035801e-02 
2.6616413764490114e+00 8.3288423280092790e-03 -2.8834861625503971e-01 
3.1002302491513754e+00 9.7068242471180996e-03 -3.3331144028110182e-01 
-1.6983134773356605e+00 2.8698032579929759e-02 1.3617702560851189e-01 
0.0000000000000000e+00 0.0000000000000000e+00 0.0000000000000000e+00 
0.0000000000000000e+00 0.0000000000000000e+00 0.0000000000000000e+00 
0.0000000000000000e+00 0.0000000000000000e+00 0.0000000000000000e+00 
0.0000000000000000e+00 0.0000000000000000e+00 0.0000000000000000e+00 
0.0000000000000000e+00 0.0000000000000000e+00 0.0000000000000000e+00 
0.0000000000000000e+00 0.0000000000000000e+00 0.0000000000000000e+00 
0.0000000000000000e+00 0.0000000000000000e+00 0.0000000000000000e+00 
0.0000000000000000e+00 0.0000000000000000e+00 0.0000000000000000e+00 
0.0000000000000000e+00 0.0000000000000000e+00 0.0000000000000000e+00 
0.0000000000000000e+00 0.0000000000000000e+00 0.0000000000000000e+00 
1.5695395148245186e+00 8.0064103519987258e-04 -4.8421610866435351e-02 
2.0488431845142796e+00 1.0397983032450421e-03 -6.6823707103739097e-02 
2.0067446416319892e+00 1.0193278613501219e-03 -6.2568827725634324e-02 
1.6480031049927832e+00 8.3992573351537642e-04 -4.8397762313415263e-02 
0.0000000000000000e+00 0.0000000000000000e+00 0.0000000000000000e+00 
0.0000000000000000e+00 0.0000000000000000e+00 0.0000000000000000e+00 
0.0000000000000000e+00 0.0000000000000000e+00 0.0000000000000000e+00 
0.0000000000000000e+00 0.0000000000000000e+00 0.0000000000000000e+00 
0.0000000000000000e+00 0.0000000000000000e+00 0.0000000000000000e+00 
0.0000000000000000e+00 0.0000000000000000e+00 0.0000000000000000e+00 
9.9005738030852586e-01 -3.9642621505358650e-05 1.1007807926670046e-04 
1.5323851073330332e+00 -1.5323525765541878e-05 1.0264296789679248e-03 
1.5122867227289067e+00 -1.5121570575709010e-05 1.0551727332341132e-03 
9.5040156989551738e-01 -3.8050544973857318e-05 1.3411819807009469e-04 
0.0000000000000000e+00 0.0000000000000000e+00 0.0000000000000000e+00 
0.0000000000000000e+00 0.0000000000000000e+00 0.0000000000000000e+00 
0.0000000000000000e+00 0.0000000000000000e+00 0.0000000000000000e+00 
0.0000000000000000e+00 0.0000000000000000e+00 0.0000000000000000e+00 
0.0000000000000000e+00 0.0000000000000000e+00 0.0000000000000000e+00 
0.0000000000000000e+00 0.0000000000000000e+00 0.0000000000000000e+00 
6.3415865641287072e-01 -2.0717681292418153e-05 -6.8977768918059117e-03 
2.8472199708830130e+00 -7.6361840426409803e-05 -3.1786468006300417e-02 
2.8573780992265028e+00 -7.6634354053560746e-05 -3.1916009418208727e-02 
6.4300311500215457e-01 -2.1005625166288860e-05 -7.0075739146610565e-03 
0.0000000000000000e+00 0.0000000000000000e+00 0.0000000000000000e+00 
0.0000000000000000e+00 0.0000000000000000e+00 0.0000000000000000e+00 
0.0000000000000000e+00 0.0000000000000000e+00 0.0000000000000000e+00 
0.0000000000000000e+00 0.0000000000000000e+00 0.0000000000000000e+00 
0.0000000000000000e+00 0.0000000000000000e+00 0.0000000000000000e+00 
0.0000000000000000e+00 0.0000000000000000e+00 0.0000000000000000e+00 
5.1858125999710569e-01 -4.3894158302879928e-06 -8.2795999073529431e-03 
1.1960279357927723e+00 -9.9672132678503482e-06 -2.0292588850736586e-02 
1.1937244346638987e+00 -9.9480920532376761e-06 -2.0283158935002269e-02 
5.1414332609682978e-01 -4.3516234738648798e-06 -8.2218246540131205e-03 
0.0000000000000000e+00 0.0000000000000000e+00 0.0000000000000000e+00 
0.0000000000000000e+00 0.0000000000000000e+00 0.0000000000000000e+00 
0.0000000000000000e+00 0.0000000000000000e+00 0.0000000000000000e+00 
0.0000000000000000e+00 0.0000000000000000e+00 0.0000000000000000e+00 
0.0000000000000000e+00 0.0000000000000000e+00 0.0000000000000000e+00 
0.0000000000000000e+00 0.0000000000000000e+00 0.0000000000000000e+00 

