# vtk DataFile Version 2.0

ASCII

DATASET UNSTRUCTURED_GRID

POINTS 58 float 

5.0000000000000003e-02  0.0000000000000000e+00  1.0000000000000000e+00
-5.0000000000000003e-02  0.0000000000000000e+00  1.0000000000000000e+00
-5.0000000000000003e-02  2.9999999999999999e-01  1.0000000000000000e+00
5.0000000000000003e-02  2.9999999999999999e-01  1.0000000000000000e+00
5.0000000000000003e-02  0.0000000000000000e+00  8.0000000000000004e-01
-5.0000000000000003e-02  0.0000000000000000e+00  8.0000000000000004e-01
-5.0000000000000003e-02  2.9999999999999999e-01  8.0000000000000004e-01
5.0000000000000003e-02  2.9999999999999999e-01  8.0000000000000004e-01
0.0000000000000000e+00  0.0000000000000000e+00  1.0000000000000000e+00
-5.0000000000000003e-02  1.4999999999999999e-01  1.0000000000000000e+00
0.0000000000000000e+00  2.9999999999999999e-01  1.0000000000000000e+00
5.0000000000000003e-02  1.4999999999999999e-01  1.0000000000000000e+00
5.0000000000000003e-02  0.0000000000000000e+00  9.0000000000000002e-01
-5.0000000000000003e-02  0.0000000000000000e+00  9.0000000000000002e-01
-5.0000000000000003e-02  2.9999999999999999e-01  9.0000000000000002e-01
5.0000000000000003e-02  2.9999999999999999e-01  9.0000000000000002e-01
-5.0000000000000003e-02  1.4999999999999999e-01  8.0000000000000004e-01
5.0000000000000003e-02  1.4999999999999999e-01  8.0000000000000004e-01
5.0000000000000003e-02  0.0000000000000000e+00  5.9999999999999998e-01
-5.0000000000000003e-02  0.0000000000000000e+00  5.9999999999999998e-01
-5.0000000000000003e-02  2.9999999999999999e-01  5.9999999999999998e-01
5.0000000000000003e-02  2.9999999999999999e-01  5.9999999999999998e-01
5.0000000000000003e-02  0.0000000000000000e+00  6.9999999999999996e-01
-5.0000000000000003e-02  0.0000000000000000e+00  6.9999999999999996e-01
-5.0000000000000003e-02  2.9999999999999999e-01  6.9999999999999996e-01
5.0000000000000003e-02  2.9999999999999999e-01  6.9999999999999996e-01
-5.0000000000000003e-02  1.4999999999999999e-01  5.9999999999999998e-01
5.0000000000000003e-02  1.4999999999999999e-01  5.9999999999999998e-01
5.0000000000000003e-02  0.0000000000000000e+00  4.0000000000000002e-01
-5.0000000000000003e-02  0.0000000000000000e+00  4.0000000000000002e-01
-5.0000000000000003e-02  2.9999999999999999e-01  4.0000000000000002e-01
5.0000000000000003e-02  2.9999999999999999e-01  4.0000000000000002e-01
5.0000000000000003e-02  0.0000000000000000e+00  5.0000000000000000e-01
-5.0000000000000003e-02  0.0000000000000000e+00  5.0000000000000000e-01
-5.0000000000000003e-02  2.9999999999999999e-01  5.0000000000000000e-01
5.0000000000000003e-02  2.9999999999999999e-01  5.0000000000000000e-01
-5.0000000000000003e-02  1.4999999999999999e-01  4.0000000000000002e-01
5.0000000000000003e-02  1.4999999999999999e-01  4.0000000000000002e-01
5.0000000000000003e-02  0.0000000000000000e+00  2.0000000000000001e-01
-5.0000000000000003e-02  0.0000000000000000e+00  2.0000000000000001e-01
-5.0000000000000003e-02  2.9999999999999999e-01  2.0000000000000001e-01
5.0000000000000003e-02  2.9999999999999999e-01  2.0000000000000001e-01
5.0000000000000003e-02  0.0000000000000000e+00  2.9999999999999999e-01
-5.0000000000000003e-02  0.0000000000000000e+00  2.9999999999999999e-01
-5.0000000000000003e-02  2.9999999999999999e-01  2.9999999999999999e-01
5.0000000000000003e-02  2.9999999999999999e-01  2.9999999999999999e-01
-5.0000000000000003e-02  1.4999999999999999e-01  2.0000000000000001e-01
5.0000000000000003e-02  1.4999999999999999e-01  2.0000000000000001e-01
5.0000000000000003e-02  0.0000000000000000e+00  0.0000000000000000e+00
-5.0000000000000003e-02  0.0000000000000000e+00  0.0000000000000000e+00
-5.0000000000000003e-02  2.9999999999999999e-01  0.0000000000000000e+00
5.0000000000000003e-02  2.9999999999999999e-01  0.0000000000000000e+00
5.0000000000000003e-02  0.0000000000000000e+00  1.0000000000000001e-01
-5.0000000000000003e-02  0.0000000000000000e+00  1.0000000000000001e-01
-5.0000000000000003e-02  2.9999999999999999e-01  1.0000000000000001e-01
5.0000000000000003e-02  2.9999999999999999e-01  1.0000000000000001e-01
-5.0000000000000003e-02  1.4999999999999999e-01  0.0000000000000000e+00
5.0000000000000003e-02  1.4999999999999999e-01  0.0000000000000000e+00

CELLS 0 0


CELL_TYPES 0


POINT_DATA 58

VECTORS VertexNormals float

0.0000000000000000e+00 0.0000000000000000e+00 0.0000000000000000e+00 
0.0000000000000000e+00 0.0000000000000000e+00 0.0000000000000000e+00 
0.0000000000000000e+00 0.0000000000000000e+00 0.0000000000000000e+00 
0.0000000000000000e+00 0.0000000000000000e+00 0.0000000000000000e+00 
0.0000000000000000e+00 0.0000000000000000e+00 0.0000000000000000e+00 
0.0000000000000000e+00 0.0000000000000000e+00 0.0000000000000000e+00 
0.0000000000000000e+00 0.0000000000000000e+00 0.0000000000000000e+00 
0.0000000000000000e+00 0.0000000000000000e+00 0.0000000000000000e+00 
0.0000000000000000e+00 0.0000000000000000e+00 0.0000000000000000e+00 
0.0000000000000000e+00 0.0000000000000000e+00 0.0000000000000000e+00 
0.0000000000000000e+00 0.0000000000000000e+00 0.0000000000000000e+00 
0.0000000000000000e+00 0.0000000000000000e+00 0.0000000000000000e+00 
0.0000000000000000e+00 0.0000000000000000e+00 0.0000000000000000e+00 
0.0000000000000000e+00 0.0000000000000000e+00 0.0000000000000000e+00 
0.0000000000000000e+00 0.0000000000000000e+00 0.0000000000000000e+00 
0.0000000000000000e+00 0.0000000000000000e+00 0.0000000000000000e+00 
0.0000000000000000e+00 0.0000000000000000e+00 0.0000000000000000e+00 
0.0000000000000000e+00 0.0000000000000000e+00 0.0000000000000000e+00 
0.0000000000000000e+00 0.0000000000000000e+00 0.0000000000000000e+00 
0.0000000000000000e+00 0.0000000000000000e+00 0.0000000000000000e+00 
0.0000000000000000e+00 0.0000000000000000e+00 0.0000000000000000e+00 
0.0000000000000000e+00 0.0000000000000000e+00 0.0000000000000000e+00 
0.0000000000000000e+00 0.0000000000000000e+00 0.0000000000000000e+00 
0.0000000000000000e+00 0.0000000000000000e+00 0.0000000000000000e+00 
0.0000000000000000e+00 0.0000000000000000e+00 0.0000000000000000e+00 
0.0000000000000000e+00 0.0000000000000000e+00 0.0000000000000000e+00 
0.0000000000000000e+00 0.0000000000000000e+00 0.0000000000000000e+00 
0.0000000000000000e+00 0.0000000000000000e+00 0.0000000000000000e+00 
0.0000000000000000e+00 0.0000000000000000e+00 0.0000000000000000e+00 
0.0000000000000000e+00 0.0000000000000000e+00 0.0000000000000000e+00 
0.0000000000000000e+00 0.0000000000000000e+00 0.0000000000000000e+00 
0.0000000000000000e+00 0.0000000000000000e+00 0.0000000000000000e+00 
0.0000000000000000e+00 0.0000000000000000e+00 0.0000000000000000e+00 
0.0000000000000000e+00 0.0000000000000000e+00 0.0000000000000000e+00 
0.0000000000000000e+00 0.0000000000000000e+00 0.0000000000000000e+00 
0.0000000000000000e+00 0.0000000000000000e+00 0.0000000000000000e+00 
0.0000000000000000e+00 0.0000000000000000e+00 0.0000000000000000e+00 
0.0000000000000000e+00 0.0000000000000000e+00 0.0000000000000000e+00 
0.0000000000000000e+00 0.0000000000000000e+00 0.0000000000000000e+00 
0.0000000000000000e+00 0.0000000000000000e+00 0.0000000000000000e+00 
0.0000000000000000e+00 0.0000000000000000e+00 0.0000000000000000e+00 
0.0000000000000000e+00 0.0000000000000000e+00 0.0000000000000000e+00 
0.0000000000000000e+00 0.0000000000000000e+00 0.0000000000000000e+00 
0.0000000000000000e+00 0.0000000000000000e+00 0.0000000000000000e+00 
0.0000000000000000e+00 0.0000000000000000e+00 0.0000000000000000e+00 
0.0000000000000000e+00 0.0000000000000000e+00 0.0000000000000000e+00 
0.0000000000000000e+00 0.0000000000000000e+00 0.0000000000000000e+00 
0.0000000000000000e+00 0.0000000000000000e+00 0.0000000000000000e+00 
0.0000000000000000e+00 0.0000000000000000e+00 0.0000000000000000e+00 
0.0000000000000000e+00 0.0000000000000000e+00 0.0000000000000000e+00 
0.0000000000000000e+00 0.0000000000000000e+00 0.0000000000000000e+00 
0.0000000000000000e+00 0.0000000000000000e+00 0.0000000000000000e+00 
0.0000000000000000e+00 0.0000000000000000e+00 0.0000000000000000e+00 
0.0000000000000000e+00 0.0000000000000000e+00 0.0000000000000000e+00 
0.0000000000000000e+00 0.0000000000000000e+00 0.0000000000000000e+00 
0.0000000000000000e+00 0.0000000000000000e+00 0.0000000000000000e+00 
0.0000000000000000e+00 0.0000000000000000e+00 0.0000000000000000e+00 
0.0000000000000000e+00 0.0000000000000000e+00 0.0000000000000000e+00 

VECTORS DisplacementDeltas0 float
-2.5797341258213184e-318 0.0000000000000000e+00 0.0000000000000000e+00 
3.3064171877239925e-03 0.0000000000000000e+00 -3.5304711822668061e-04 
3.0159982238527928e-03 0.0000000000000000e+00 -4.2477682761118941e-04 
3.4539502330736506e-03 0.0000000000000000e+00 -1.4610097492507679e-04 
1.0577044772274516e-03 0.0000000000000000e+00 -9.2633344238307689e-04 
1.0726422066737831e-03 0.0000000000000000e+00 7.8348800567710119e-04 
1.1251591793867001e-03 0.0000000000000000e+00 9.3807464882413624e-04 
1.0622503533358832e-03 0.0000000000000000e+00 -8.9213257878763990e-04 
3.0284426555262050e-03 0.0000000000000000e+00 -7.4621936779666618e-05 
2.8784206135878203e-03 0.0000000000000000e+00 2.8091339725226541e-04 
3.3326485252445255e-03 0.0000000000000000e+00 -1.2161660863931458e-05 
2.8426311877698595e-03 0.0000000000000000e+00 -7.9918188617810544e-04 
2.4290360342968014e-03 0.0000000000000000e+00 -5.2024540276954863e-04 
2.4003179702089140e-03 0.0000000000000000e+00 3.1859110277822290e-04 
2.0378727249623745e-03 0.0000000000000000e+00 4.5327978847951400e-04 
2.2257138034652304e-03 0.0000000000000000e+00 -6.2172434355011505e-04 
8.9247937361020457e-04 0.0000000000000000e+00 3.2838982654106292e-04 
1.0615880017174595e-03 0.0000000000000000e+00 -6.0659792883668666e-04 
1.9563754384660509e-04 0.0000000000000000e+00 2.2983689498171545e-04 
1.5142721964649781e-04 0.0000000000000000e+00 8.3169385760426155e-05 
8.7059857228125297e-05 0.0000000000000000e+00 7.2206878876391077e-05 
1.7216281200660091e-04 0.0000000000000000e+00 2.2153591219041963e-04 
4.3451926971339253e-04 0.0000000000000000e+00 -2.6765674244185573e-04 
4.5575198776865339e-04 0.0000000000000000e+00 5.2107837764507137e-04 
5.1467517422756665e-04 0.0000000000000000e+00 5.3202867039584814e-04 
4.5476000350395105e-04 0.0000000000000000e+00 -1.5225092734200005e-04 
5.3188245241635477e-05 0.0000000000000000e+00 5.4286424242564190e-05 
5.6983885196856956e-05 0.0000000000000000e+00 2.5617326722946219e-05 
3.9668269592498266e-04 0.0000000000000000e+00 1.0196857022514461e-04 
3.5102344982182362e-04 0.0000000000000000e+00 7.3242171457148542e-05 
4.0409782585784030e-04 0.0000000000000000e+00 6.6541803863033849e-05 
4.2653589319746491e-04 0.0000000000000000e+00 9.6799401302951786e-05 
5.1527492945829410e-04 0.0000000000000000e+00 2.1581198536901698e-04 
3.8683561846655681e-04 0.0000000000000000e+00 6.4231885479036274e-05 
3.7719293708454510e-04 0.0000000000000000e+00 1.0329428176685780e-04 
4.9522531690362895e-04 0.0000000000000000e+00 2.6247130236623498e-04 
2.4643485992081676e-04 0.0000000000000000e+00 1.5692068044607368e-04 
1.8346981924654068e-04 0.0000000000000000e+00 2.1101001841081796e-04 
2.5849014023604180e-04 0.0000000000000000e+00 -1.0679890419772122e-04 
2.3935095908497489e-04 0.0000000000000000e+00 1.3625518749043957e-04 
2.4763734183449326e-04 0.0000000000000000e+00 1.3068403391428758e-04 
2.6262632739549924e-04 0.0000000000000000e+00 -9.9456254362165097e-05 
5.2331972356835579e-04 0.0000000000000000e+00 -2.0437833901663468e-05 
5.1604708856023114e-04 0.0000000000000000e+00 6.5012480626960316e-05 
4.9925091384946476e-04 0.0000000000000000e+00 6.3187539178440587e-05 
5.1509116026716756e-04 0.0000000000000000e+00 -3.4592991388325603e-05 
1.6648331777072427e-04 0.0000000000000000e+00 8.0098801636679256e-05 
1.6970779014818718e-04 0.0000000000000000e+00 -1.1337968345089187e-04 
0.0000000000000000e+00 0.0000000000000000e+00 0.0000000000000000e+00 
0.0000000000000000e+00 0.0000000000000000e+00 0.0000000000000000e+00 
0.0000000000000000e+00 0.0000000000000000e+00 0.0000000000000000e+00 
0.0000000000000000e+00 0.0000000000000000e+00 0.0000000000000000e+00 
1.3986287502431102e-04 0.0000000000000000e+00 -9.8581051330904788e-06 
1.3021430141033064e-04 0.0000000000000000e+00 6.2959206411768257e-05 
1.3108675454678420e-04 0.0000000000000000e+00 6.3208673046438984e-05 
1.4095393624523347e-04 0.0000000000000000e+00 -1.2530923206075047e-05 
0.0000000000000000e+00 0.0000000000000000e+00 0.0000000000000000e+00 
0.0000000000000000e+00 0.0000000000000000e+00 0.0000000000000000e+00 

VECTORS Forces0 float
7.3063073203017721e+00 -1.9273775346570646e-01 3.3210495504061495e+00 
-1.6292239571857592e-01 -1.9281681781544712e-04 8.2022252389002973e-02 
-3.6416186168303305e-01 -4.4642133729652097e-04 1.9431982772188533e-01 
6.9681929731374783e+00 -1.8385528894935177e-01 3.1645983384364538e+00 
-8.5971325159710543e-01 3.2307640571973572e-03 3.2935987470522972e-03 
4.0387779789858644e+00 3.5552228441021990e-03 -9.1016731770865486e-02 
4.1260257066953683e+00 3.6324490874654605e-03 -9.1655665824931773e-02 
-8.1331848574196963e-01 3.0522300459058984e-03 1.4440640036480608e-02 
0.0000000000000000e+00 0.0000000000000000e+00 0.0000000000000000e+00 
0.0000000000000000e+00 0.0000000000000000e+00 0.0000000000000000e+00 
0.0000000000000000e+00 0.0000000000000000e+00 0.0000000000000000e+00 
0.0000000000000000e+00 0.0000000000000000e+00 0.0000000000000000e+00 
0.0000000000000000e+00 0.0000000000000000e+00 0.0000000000000000e+00 
0.0000000000000000e+00 0.0000000000000000e+00 0.0000000000000000e+00 
0.0000000000000000e+00 0.0000000000000000e+00 0.0000000000000000e+00 
0.0000000000000000e+00 0.0000000000000000e+00 0.0000000000000000e+00 
0.0000000000000000e+00 0.0000000000000000e+00 0.0000000000000000e+00 
0.0000000000000000e+00 0.0000000000000000e+00 0.0000000000000000e+00 
2.2093648528569680e+00 4.2629446134323517e-04 -6.1713553310523599e-03 
1.5781472653447148e+00 2.7312432360777135e-04 -6.6720872078149676e-03 
1.5773230927679149e+00 2.7299935412580957e-04 -6.0863511979127030e-03 
2.2192041913673299e+00 4.2797771579647560e-04 -5.2320660867736001e-03 
0.0000000000000000e+00 0.0000000000000000e+00 0.0000000000000000e+00 
0.0000000000000000e+00 0.0000000000000000e+00 0.0000000000000000e+00 
0.0000000000000000e+00 0.0000000000000000e+00 0.0000000000000000e+00 
0.0000000000000000e+00 0.0000000000000000e+00 0.0000000000000000e+00 
0.0000000000000000e+00 0.0000000000000000e+00 0.0000000000000000e+00 
0.0000000000000000e+00 0.0000000000000000e+00 0.0000000000000000e+00 
1.6844535248000820e+00 1.1704829122591102e-05 1.2013937014699208e-03 
1.7401382323810017e+00 3.5696692335673212e-05 2.2744283667814153e-03 
1.7309364777789040e+00 3.5508799608219094e-05 2.3133823237376340e-03 
1.6741517274282582e+00 1.1637604183818196e-05 1.2450694970753313e-03 
0.0000000000000000e+00 0.0000000000000000e+00 0.0000000000000000e+00 
0.0000000000000000e+00 0.0000000000000000e+00 0.0000000000000000e+00 
0.0000000000000000e+00 0.0000000000000000e+00 0.0000000000000000e+00 
0.0000000000000000e+00 0.0000000000000000e+00 0.0000000000000000e+00 
0.0000000000000000e+00 0.0000000000000000e+00 0.0000000000000000e+00 
0.0000000000000000e+00 0.0000000000000000e+00 0.0000000000000000e+00 
1.3562419992624253e+00 -1.8215875883101471e-05 -4.8915988687203470e-03 
2.9538351519748920e+00 -3.6528078694591364e-05 -1.0978907461698207e-02 
2.9536571817224648e+00 -3.6525469458543227e-05 -1.0955219366334363e-02 
1.3568373557159012e+00 -1.8223646475050380e-05 -4.8930461895439151e-03 
0.0000000000000000e+00 0.0000000000000000e+00 0.0000000000000000e+00 
0.0000000000000000e+00 0.0000000000000000e+00 0.0000000000000000e+00 
0.0000000000000000e+00 0.0000000000000000e+00 0.0000000000000000e+00 
0.0000000000000000e+00 0.0000000000000000e+00 0.0000000000000000e+00 
0.0000000000000000e+00 0.0000000000000000e+00 0.0000000000000000e+00 
0.0000000000000000e+00 0.0000000000000000e+00 0.0000000000000000e+00 
8.6126981337433406e-01 -3.9192953535079693e-06 -6.5796323002142356e-03 
1.2072244362142610e+00 -6.0400676538199765e-06 -9.7760518590107072e-03 
1.2072164517468065e+00 -6.0400796996359110e-06 -9.7940874562275817e-03 
8.6139812193915533e-01 -3.9198807973118158e-06 -6.5923831925391221e-03 
0.0000000000000000e+00 0.0000000000000000e+00 0.0000000000000000e+00 
0.0000000000000000e+00 0.0000000000000000e+00 0.0000000000000000e+00 
0.0000000000000000e+00 0.0000000000000000e+00 0.0000000000000000e+00 
0.0000000000000000e+00 0.0000000000000000e+00 0.0000000000000000e+00 
0.0000000000000000e+00 0.0000000000000000e+00 0.0000000000000000e+00 
0.0000000000000000e+00 0.0000000000000000e+00 0.0000000000000000e+00 

