# vtk DataFile Version 2.0

ASCII

DATASET UNSTRUCTURED_GRID

POINTS 58 float 

5.0000000000000003e-02  0.0000000000000000e+00  1.0000000000000000e+00
-5.0000000000000003e-02  0.0000000000000000e+00  1.0000000000000000e+00
-5.0000000000000003e-02  2.9999999999999999e-01  1.0000000000000000e+00
5.0000000000000003e-02  2.9999999999999999e-01  1.0000000000000000e+00
5.0000000000000003e-02  0.0000000000000000e+00  8.0000000000000004e-01
-5.0000000000000003e-02  0.0000000000000000e+00  8.0000000000000004e-01
-5.0000000000000003e-02  2.9999999999999999e-01  8.0000000000000004e-01
5.0000000000000003e-02  2.9999999999999999e-01  8.0000000000000004e-01
0.0000000000000000e+00  0.0000000000000000e+00  1.0000000000000000e+00
-5.0000000000000003e-02  1.4999999999999999e-01  1.0000000000000000e+00
0.0000000000000000e+00  2.9999999999999999e-01  1.0000000000000000e+00
5.0000000000000003e-02  1.4999999999999999e-01  1.0000000000000000e+00
5.0000000000000003e-02  0.0000000000000000e+00  9.0000000000000002e-01
-5.0000000000000003e-02  0.0000000000000000e+00  9.0000000000000002e-01
-5.0000000000000003e-02  2.9999999999999999e-01  9.0000000000000002e-01
5.0000000000000003e-02  2.9999999999999999e-01  9.0000000000000002e-01
-5.0000000000000003e-02  1.4999999999999999e-01  8.0000000000000004e-01
5.0000000000000003e-02  1.4999999999999999e-01  8.0000000000000004e-01
5.0000000000000003e-02  0.0000000000000000e+00  5.9999999999999998e-01
-5.0000000000000003e-02  0.0000000000000000e+00  5.9999999999999998e-01
-5.0000000000000003e-02  2.9999999999999999e-01  5.9999999999999998e-01
5.0000000000000003e-02  2.9999999999999999e-01  5.9999999999999998e-01
5.0000000000000003e-02  0.0000000000000000e+00  6.9999999999999996e-01
-5.0000000000000003e-02  0.0000000000000000e+00  6.9999999999999996e-01
-5.0000000000000003e-02  2.9999999999999999e-01  6.9999999999999996e-01
5.0000000000000003e-02  2.9999999999999999e-01  6.9999999999999996e-01
-5.0000000000000003e-02  1.4999999999999999e-01  5.9999999999999998e-01
5.0000000000000003e-02  1.4999999999999999e-01  5.9999999999999998e-01
5.0000000000000003e-02  0.0000000000000000e+00  4.0000000000000002e-01
-5.0000000000000003e-02  0.0000000000000000e+00  4.0000000000000002e-01
-5.0000000000000003e-02  2.9999999999999999e-01  4.0000000000000002e-01
5.0000000000000003e-02  2.9999999999999999e-01  4.0000000000000002e-01
5.0000000000000003e-02  0.0000000000000000e+00  5.0000000000000000e-01
-5.0000000000000003e-02  0.0000000000000000e+00  5.0000000000000000e-01
-5.0000000000000003e-02  2.9999999999999999e-01  5.0000000000000000e-01
5.0000000000000003e-02  2.9999999999999999e-01  5.0000000000000000e-01
-5.0000000000000003e-02  1.4999999999999999e-01  4.0000000000000002e-01
5.0000000000000003e-02  1.4999999999999999e-01  4.0000000000000002e-01
5.0000000000000003e-02  0.0000000000000000e+00  2.0000000000000001e-01
-5.0000000000000003e-02  0.0000000000000000e+00  2.0000000000000001e-01
-5.0000000000000003e-02  2.9999999999999999e-01  2.0000000000000001e-01
5.0000000000000003e-02  2.9999999999999999e-01  2.0000000000000001e-01
5.0000000000000003e-02  0.0000000000000000e+00  2.9999999999999999e-01
-5.0000000000000003e-02  0.0000000000000000e+00  2.9999999999999999e-01
-5.0000000000000003e-02  2.9999999999999999e-01  2.9999999999999999e-01
5.0000000000000003e-02  2.9999999999999999e-01  2.9999999999999999e-01
-5.0000000000000003e-02  1.4999999999999999e-01  2.0000000000000001e-01
5.0000000000000003e-02  1.4999999999999999e-01  2.0000000000000001e-01
5.0000000000000003e-02  0.0000000000000000e+00  0.0000000000000000e+00
-5.0000000000000003e-02  0.0000000000000000e+00  0.0000000000000000e+00
-5.0000000000000003e-02  2.9999999999999999e-01  0.0000000000000000e+00
5.0000000000000003e-02  2.9999999999999999e-01  0.0000000000000000e+00
5.0000000000000003e-02  0.0000000000000000e+00  1.0000000000000001e-01
-5.0000000000000003e-02  0.0000000000000000e+00  1.0000000000000001e-01
-5.0000000000000003e-02  2.9999999999999999e-01  1.0000000000000001e-01
5.0000000000000003e-02  2.9999999999999999e-01  1.0000000000000001e-01
-5.0000000000000003e-02  1.4999999999999999e-01  0.0000000000000000e+00
5.0000000000000003e-02  1.4999999999999999e-01  0.0000000000000000e+00

CELLS 0 0


CELL_TYPES 0


POINT_DATA 58

VECTORS VertexNormals float

0.0000000000000000e+00 0.0000000000000000e+00 0.0000000000000000e+00 
0.0000000000000000e+00 0.0000000000000000e+00 0.0000000000000000e+00 
0.0000000000000000e+00 0.0000000000000000e+00 0.0000000000000000e+00 
0.0000000000000000e+00 0.0000000000000000e+00 0.0000000000000000e+00 
0.0000000000000000e+00 0.0000000000000000e+00 0.0000000000000000e+00 
0.0000000000000000e+00 0.0000000000000000e+00 0.0000000000000000e+00 
0.0000000000000000e+00 0.0000000000000000e+00 0.0000000000000000e+00 
0.0000000000000000e+00 0.0000000000000000e+00 0.0000000000000000e+00 
0.0000000000000000e+00 0.0000000000000000e+00 0.0000000000000000e+00 
0.0000000000000000e+00 0.0000000000000000e+00 0.0000000000000000e+00 
0.0000000000000000e+00 0.0000000000000000e+00 0.0000000000000000e+00 
0.0000000000000000e+00 0.0000000000000000e+00 0.0000000000000000e+00 
0.0000000000000000e+00 0.0000000000000000e+00 0.0000000000000000e+00 
0.0000000000000000e+00 0.0000000000000000e+00 0.0000000000000000e+00 
0.0000000000000000e+00 0.0000000000000000e+00 0.0000000000000000e+00 
0.0000000000000000e+00 0.0000000000000000e+00 0.0000000000000000e+00 
0.0000000000000000e+00 0.0000000000000000e+00 0.0000000000000000e+00 
0.0000000000000000e+00 0.0000000000000000e+00 0.0000000000000000e+00 
0.0000000000000000e+00 0.0000000000000000e+00 0.0000000000000000e+00 
0.0000000000000000e+00 0.0000000000000000e+00 0.0000000000000000e+00 
0.0000000000000000e+00 0.0000000000000000e+00 0.0000000000000000e+00 
0.0000000000000000e+00 0.0000000000000000e+00 0.0000000000000000e+00 
0.0000000000000000e+00 0.0000000000000000e+00 0.0000000000000000e+00 
0.0000000000000000e+00 0.0000000000000000e+00 0.0000000000000000e+00 
0.0000000000000000e+00 0.0000000000000000e+00 0.0000000000000000e+00 
0.0000000000000000e+00 0.0000000000000000e+00 0.0000000000000000e+00 
0.0000000000000000e+00 0.0000000000000000e+00 0.0000000000000000e+00 
0.0000000000000000e+00 0.0000000000000000e+00 0.0000000000000000e+00 
0.0000000000000000e+00 0.0000000000000000e+00 0.0000000000000000e+00 
0.0000000000000000e+00 0.0000000000000000e+00 0.0000000000000000e+00 
0.0000000000000000e+00 0.0000000000000000e+00 0.0000000000000000e+00 
0.0000000000000000e+00 0.0000000000000000e+00 0.0000000000000000e+00 
0.0000000000000000e+00 0.0000000000000000e+00 0.0000000000000000e+00 
0.0000000000000000e+00 0.0000000000000000e+00 0.0000000000000000e+00 
0.0000000000000000e+00 0.0000000000000000e+00 0.0000000000000000e+00 
0.0000000000000000e+00 0.0000000000000000e+00 0.0000000000000000e+00 
0.0000000000000000e+00 0.0000000000000000e+00 0.0000000000000000e+00 
0.0000000000000000e+00 0.0000000000000000e+00 0.0000000000000000e+00 
0.0000000000000000e+00 0.0000000000000000e+00 0.0000000000000000e+00 
0.0000000000000000e+00 0.0000000000000000e+00 0.0000000000000000e+00 
0.0000000000000000e+00 0.0000000000000000e+00 0.0000000000000000e+00 
0.0000000000000000e+00 0.0000000000000000e+00 0.0000000000000000e+00 
0.0000000000000000e+00 0.0000000000000000e+00 0.0000000000000000e+00 
0.0000000000000000e+00 0.0000000000000000e+00 0.0000000000000000e+00 
0.0000000000000000e+00 0.0000000000000000e+00 0.0000000000000000e+00 
0.0000000000000000e+00 0.0000000000000000e+00 0.0000000000000000e+00 
0.0000000000000000e+00 0.0000000000000000e+00 0.0000000000000000e+00 
0.0000000000000000e+00 0.0000000000000000e+00 0.0000000000000000e+00 
0.0000000000000000e+00 0.0000000000000000e+00 0.0000000000000000e+00 
0.0000000000000000e+00 0.0000000000000000e+00 0.0000000000000000e+00 
0.0000000000000000e+00 0.0000000000000000e+00 0.0000000000000000e+00 
0.0000000000000000e+00 0.0000000000000000e+00 0.0000000000000000e+00 
0.0000000000000000e+00 0.0000000000000000e+00 0.0000000000000000e+00 
0.0000000000000000e+00 0.0000000000000000e+00 0.0000000000000000e+00 
0.0000000000000000e+00 0.0000000000000000e+00 0.0000000000000000e+00 
0.0000000000000000e+00 0.0000000000000000e+00 0.0000000000000000e+00 
0.0000000000000000e+00 0.0000000000000000e+00 0.0000000000000000e+00 
0.0000000000000000e+00 0.0000000000000000e+00 0.0000000000000000e+00 

VECTORS DisplacementDeltas0 float
1.2447292255066029e-318 0.0000000000000000e+00 0.0000000000000000e+00 
3.7008420024314398e-02 0.0000000000000000e+00 -1.8317720638167893e-02 
3.6616665624831901e-02 0.0000000000000000e+00 -1.7882875859288428e-02 
2.8247391030513339e-02 0.0000000000000000e+00 -2.4914652322443675e-02 
1.3394344737363666e-02 0.0000000000000000e+00 -9.8703641468040684e-03 
2.0553383033208840e-02 0.0000000000000000e+00 -2.6148966552528453e-03 
1.9973542688056754e-02 0.0000000000000000e+00 -1.8734429000534401e-03 
1.3343983555137832e-02 0.0000000000000000e+00 -9.2189134119357533e-03 
3.2986035861440832e-02 0.0000000000000000e+00 -2.2075442962530244e-02 
3.7049650312415583e-02 0.0000000000000000e+00 -1.8423912852166123e-02 
3.2457192517764216e-02 0.0000000000000000e+00 -2.1533452495454533e-02 
2.9266199870883886e-02 0.0000000000000000e+00 -2.5880868591178295e-02 
2.1153301843058525e-02 0.0000000000000000e+00 -1.8051916033247663e-02 
2.9234942298506150e-02 0.0000000000000000e+00 -1.0784265108319592e-02 
2.8958450781839118e-02 0.0000000000000000e+00 -9.6032619627240620e-03 
2.0831813148068652e-02 0.0000000000000000e+00 -1.6865838796218714e-02 
2.0657284974614963e-02 0.0000000000000000e+00 -2.5314904827250066e-03 
1.3610356591077288e-02 0.0000000000000000e+00 -9.4717287550687597e-03 
2.0918411788320218e-03 0.0000000000000000e+00 -1.2425945832220588e-03 
3.8030243822870435e-03 0.0000000000000000e+00 3.4446788006076250e-03 
3.7183171344447145e-03 0.0000000000000000e+00 3.2618404448794044e-03 
2.2134982549670045e-03 0.0000000000000000e+00 -1.1493948891888061e-03 
7.1774120307763530e-03 0.0000000000000000e+00 -4.2573221987210527e-03 
1.1295549246144537e-02 0.0000000000000000e+00 2.5239597102768730e-03 
1.1006893547875509e-02 0.0000000000000000e+00 2.5775735305121894e-03 
7.1748925808542054e-03 0.0000000000000000e+00 -4.0003974787722199e-03 
3.7021875622586416e-03 0.0000000000000000e+00 3.5440112330499336e-03 
2.2009350098928532e-03 0.0000000000000000e+00 -9.4094328166614317e-04 
-1.2155083259975021e-03 0.0000000000000000e+00 6.9303748499397865e-04 
-1.0312499340842936e-03 0.0000000000000000e+00 9.2696894754972967e-04 
-9.6408157987011491e-04 0.0000000000000000e+00 9.6825149835311100e-04 
-1.1735143870539855e-03 0.0000000000000000e+00 5.2431290150385126e-04 
-3.0063943955944777e-04 0.0000000000000000e+00 7.3696191314118783e-05 
6.7105531829804617e-05 0.0000000000000000e+00 2.1145857313517409e-03 
4.5474569602393239e-05 0.0000000000000000e+00 2.1690387681925515e-03 
-3.5226964374718999e-04 0.0000000000000000e+00 7.4243856350437597e-05 
-7.9522274137560083e-04 0.0000000000000000e+00 1.1128241291567850e-03 
-1.1233606902244129e-03 0.0000000000000000e+00 5.4112017317495134e-04 
-6.7746272039142120e-04 0.0000000000000000e+00 5.8626543352266014e-04 
-5.8402968680556187e-04 0.0000000000000000e+00 2.7464306337117032e-04 
-6.7264462483893907e-04 0.0000000000000000e+00 1.9975348234967593e-04 
-7.8682934666908489e-04 0.0000000000000000e+00 6.7119800044701213e-04 
-9.8400794522251773e-04 0.0000000000000000e+00 7.0849872388209923e-04 
-9.4532966695596242e-04 0.0000000000000000e+00 4.1684708116113833e-04 
-9.3487337215005331e-04 0.0000000000000000e+00 3.9321924478721176e-04 
-9.3882063274268609e-04 0.0000000000000000e+00 7.0228184481196747e-04 
-4.8784133213154832e-04 0.0000000000000000e+00 -3.7327061122515662e-06 
-5.8698254916645103e-04 0.0000000000000000e+00 4.5649278732243790e-04 
0.0000000000000000e+00 0.0000000000000000e+00 0.0000000000000000e+00 
0.0000000000000000e+00 0.0000000000000000e+00 0.0000000000000000e+00 
0.0000000000000000e+00 0.0000000000000000e+00 0.0000000000000000e+00 
0.0000000000000000e+00 0.0000000000000000e+00 0.0000000000000000e+00 
-3.2361207353520118e-04 0.0000000000000000e+00 2.6696003006729116e-04 
-2.4657958558514236e-04 0.0000000000000000e+00 7.1030563281541882e-05 
-1.9579993727003239e-04 0.0000000000000000e+00 7.7040968656998967e-05 
-2.6865520103916949e-04 0.0000000000000000e+00 2.6470282117388032e-04 
0.0000000000000000e+00 0.0000000000000000e+00 0.0000000000000000e+00 
0.0000000000000000e+00 0.0000000000000000e+00 0.0000000000000000e+00 

VECTORS Forces0 float
5.3744641080817157e+00 -3.6430223237612958e+00 -1.8044355968115922e+00 
6.0163863737021750e-01 3.5003419087182325e-02 -1.3801827652966350e-01 
-1.5272528890371675e+00 -1.5344655604629620e-01 2.3144103968525425e+00 
5.0722954874042225e-01 -3.4423546575903097e-01 -1.7201711324094562e-01 
-9.1330170732768767e-01 8.8887727937601149e-02 1.0539199156659690e-01 
-3.8143466393889724e+00 -6.9779269470160388e-02 2.7492547377834402e+00 
-1.9705122120384542e+00 -3.6017027342597055e-02 1.4063372204699889e+00 
-1.1583143107726750e+00 1.2769879740784740e-01 5.7483116561049152e-01 
0.0000000000000000e+00 0.0000000000000000e+00 0.0000000000000000e+00 
0.0000000000000000e+00 0.0000000000000000e+00 0.0000000000000000e+00 
0.0000000000000000e+00 0.0000000000000000e+00 0.0000000000000000e+00 
0.0000000000000000e+00 0.0000000000000000e+00 0.0000000000000000e+00 
0.0000000000000000e+00 0.0000000000000000e+00 0.0000000000000000e+00 
0.0000000000000000e+00 0.0000000000000000e+00 0.0000000000000000e+00 
0.0000000000000000e+00 0.0000000000000000e+00 0.0000000000000000e+00 
0.0000000000000000e+00 0.0000000000000000e+00 0.0000000000000000e+00 
0.0000000000000000e+00 0.0000000000000000e+00 0.0000000000000000e+00 
0.0000000000000000e+00 0.0000000000000000e+00 0.0000000000000000e+00 
6.1240493925721429e-01 9.2138258641766139e-04 -1.6755489117280092e-01 
4.1378876476214987e+00 8.9100330014583885e-03 -1.2056872206254110e+00 
3.8487764054475391e+00 8.2907600475401848e-03 -1.0939333467855672e+00 
1.2516173026938202e+00 1.8594935513966114e-03 -3.3453670127788893e-01 
0.0000000000000000e+00 0.0000000000000000e+00 0.0000000000000000e+00 
0.0000000000000000e+00 0.0000000000000000e+00 0.0000000000000000e+00 
0.0000000000000000e+00 0.0000000000000000e+00 0.0000000000000000e+00 
0.0000000000000000e+00 0.0000000000000000e+00 0.0000000000000000e+00 
0.0000000000000000e+00 0.0000000000000000e+00 0.0000000000000000e+00 
0.0000000000000000e+00 0.0000000000000000e+00 0.0000000000000000e+00 
1.0967594175585711e+00 -1.5222637380124524e-04 -3.2019739297525662e-02 
1.5838927371613720e+00 2.5312310803615057e-05 -5.8130222225164820e-02 
1.5520036827321446e+00 2.4752658398067985e-05 -5.7102052431463095e-02 
9.8230168145610797e-01 -1.3643245532017110e-04 -2.8981112649798385e-02 
0.0000000000000000e+00 0.0000000000000000e+00 0.0000000000000000e+00 
0.0000000000000000e+00 0.0000000000000000e+00 0.0000000000000000e+00 
0.0000000000000000e+00 0.0000000000000000e+00 0.0000000000000000e+00 
0.0000000000000000e+00 0.0000000000000000e+00 0.0000000000000000e+00 
0.0000000000000000e+00 0.0000000000000000e+00 0.0000000000000000e+00 
0.0000000000000000e+00 0.0000000000000000e+00 0.0000000000000000e+00 
3.7580911967272779e-01 -2.3823061353103132e-05 -1.7669087975085698e-03 
2.6163183544033415e+00 -2.2048742069808077e-05 -1.6207042790827329e-02 
2.6309011851341344e+00 -2.2156864635384885e-05 -1.6214023823883261e-02 
4.0211985382046694e-01 -2.5490544930996328e-05 -1.8937698647787438e-03 
0.0000000000000000e+00 0.0000000000000000e+00 0.0000000000000000e+00 
0.0000000000000000e+00 0.0000000000000000e+00 0.0000000000000000e+00 
0.0000000000000000e+00 0.0000000000000000e+00 0.0000000000000000e+00 
0.0000000000000000e+00 0.0000000000000000e+00 0.0000000000000000e+00 
0.0000000000000000e+00 0.0000000000000000e+00 0.0000000000000000e+00 
0.0000000000000000e+00 0.0000000000000000e+00 0.0000000000000000e+00 
4.0157679906363075e-01 -8.5364397540782914e-06 -6.9874063412292140e-03 
1.0573921975164817e+00 -7.2829929400818901e-06 -2.0088919243652140e-02 
1.0542976725399837e+00 -7.2624430056814238e-06 -2.0051805564272666e-02 
3.9220545534087053e-01 -8.3387771418833424e-06 -6.8493586409975960e-03 
0.0000000000000000e+00 0.0000000000000000e+00 0.0000000000000000e+00 
0.0000000000000000e+00 0.0000000000000000e+00 0.0000000000000000e+00 
0.0000000000000000e+00 0.0000000000000000e+00 0.0000000000000000e+00 
0.0000000000000000e+00 0.0000000000000000e+00 0.0000000000000000e+00 
0.0000000000000000e+00 0.0000000000000000e+00 0.0000000000000000e+00 
0.0000000000000000e+00 0.0000000000000000e+00 0.0000000000000000e+00 

