# vtk DataFile Version 2.0

ASCII

DATASET UNSTRUCTURED_GRID

POINTS 58 float 

5.0000000000000003e-02  0.0000000000000000e+00  1.0000000000000000e+00
-5.0000000000000003e-02  0.0000000000000000e+00  1.0000000000000000e+00
-5.0000000000000003e-02  2.9999999999999999e-01  1.0000000000000000e+00
5.0000000000000003e-02  2.9999999999999999e-01  1.0000000000000000e+00
5.0000000000000003e-02  0.0000000000000000e+00  8.0000000000000004e-01
-5.0000000000000003e-02  0.0000000000000000e+00  8.0000000000000004e-01
-5.0000000000000003e-02  2.9999999999999999e-01  8.0000000000000004e-01
5.0000000000000003e-02  2.9999999999999999e-01  8.0000000000000004e-01
0.0000000000000000e+00  0.0000000000000000e+00  1.0000000000000000e+00
-5.0000000000000003e-02  1.4999999999999999e-01  1.0000000000000000e+00
0.0000000000000000e+00  2.9999999999999999e-01  1.0000000000000000e+00
5.0000000000000003e-02  1.4999999999999999e-01  1.0000000000000000e+00
5.0000000000000003e-02  0.0000000000000000e+00  9.0000000000000002e-01
-5.0000000000000003e-02  0.0000000000000000e+00  9.0000000000000002e-01
-5.0000000000000003e-02  2.9999999999999999e-01  9.0000000000000002e-01
5.0000000000000003e-02  2.9999999999999999e-01  9.0000000000000002e-01
-5.0000000000000003e-02  1.4999999999999999e-01  8.0000000000000004e-01
5.0000000000000003e-02  1.4999999999999999e-01  8.0000000000000004e-01
5.0000000000000003e-02  0.0000000000000000e+00  5.9999999999999998e-01
-5.0000000000000003e-02  0.0000000000000000e+00  5.9999999999999998e-01
-5.0000000000000003e-02  2.9999999999999999e-01  5.9999999999999998e-01
5.0000000000000003e-02  2.9999999999999999e-01  5.9999999999999998e-01
5.0000000000000003e-02  0.0000000000000000e+00  6.9999999999999996e-01
-5.0000000000000003e-02  0.0000000000000000e+00  6.9999999999999996e-01
-5.0000000000000003e-02  2.9999999999999999e-01  6.9999999999999996e-01
5.0000000000000003e-02  2.9999999999999999e-01  6.9999999999999996e-01
-5.0000000000000003e-02  1.4999999999999999e-01  5.9999999999999998e-01
5.0000000000000003e-02  1.4999999999999999e-01  5.9999999999999998e-01
5.0000000000000003e-02  0.0000000000000000e+00  4.0000000000000002e-01
-5.0000000000000003e-02  0.0000000000000000e+00  4.0000000000000002e-01
-5.0000000000000003e-02  2.9999999999999999e-01  4.0000000000000002e-01
5.0000000000000003e-02  2.9999999999999999e-01  4.0000000000000002e-01
5.0000000000000003e-02  0.0000000000000000e+00  5.0000000000000000e-01
-5.0000000000000003e-02  0.0000000000000000e+00  5.0000000000000000e-01
-5.0000000000000003e-02  2.9999999999999999e-01  5.0000000000000000e-01
5.0000000000000003e-02  2.9999999999999999e-01  5.0000000000000000e-01
-5.0000000000000003e-02  1.4999999999999999e-01  4.0000000000000002e-01
5.0000000000000003e-02  1.4999999999999999e-01  4.0000000000000002e-01
5.0000000000000003e-02  0.0000000000000000e+00  2.0000000000000001e-01
-5.0000000000000003e-02  0.0000000000000000e+00  2.0000000000000001e-01
-5.0000000000000003e-02  2.9999999999999999e-01  2.0000000000000001e-01
5.0000000000000003e-02  2.9999999999999999e-01  2.0000000000000001e-01
5.0000000000000003e-02  0.0000000000000000e+00  2.9999999999999999e-01
-5.0000000000000003e-02  0.0000000000000000e+00  2.9999999999999999e-01
-5.0000000000000003e-02  2.9999999999999999e-01  2.9999999999999999e-01
5.0000000000000003e-02  2.9999999999999999e-01  2.9999999999999999e-01
-5.0000000000000003e-02  1.4999999999999999e-01  2.0000000000000001e-01
5.0000000000000003e-02  1.4999999999999999e-01  2.0000000000000001e-01
5.0000000000000003e-02  0.0000000000000000e+00  0.0000000000000000e+00
-5.0000000000000003e-02  0.0000000000000000e+00  0.0000000000000000e+00
-5.0000000000000003e-02  2.9999999999999999e-01  0.0000000000000000e+00
5.0000000000000003e-02  2.9999999999999999e-01  0.0000000000000000e+00
5.0000000000000003e-02  0.0000000000000000e+00  1.0000000000000001e-01
-5.0000000000000003e-02  0.0000000000000000e+00  1.0000000000000001e-01
-5.0000000000000003e-02  2.9999999999999999e-01  1.0000000000000001e-01
5.0000000000000003e-02  2.9999999999999999e-01  1.0000000000000001e-01
-5.0000000000000003e-02  1.4999999999999999e-01  0.0000000000000000e+00
5.0000000000000003e-02  1.4999999999999999e-01  0.0000000000000000e+00

CELLS 0 0


CELL_TYPES 0


POINT_DATA 58

VECTORS VertexNormals float

0.0000000000000000e+00 0.0000000000000000e+00 0.0000000000000000e+00 
0.0000000000000000e+00 0.0000000000000000e+00 0.0000000000000000e+00 
0.0000000000000000e+00 0.0000000000000000e+00 0.0000000000000000e+00 
0.0000000000000000e+00 0.0000000000000000e+00 0.0000000000000000e+00 
0.0000000000000000e+00 0.0000000000000000e+00 0.0000000000000000e+00 
0.0000000000000000e+00 0.0000000000000000e+00 0.0000000000000000e+00 
0.0000000000000000e+00 0.0000000000000000e+00 0.0000000000000000e+00 
0.0000000000000000e+00 0.0000000000000000e+00 0.0000000000000000e+00 
0.0000000000000000e+00 0.0000000000000000e+00 0.0000000000000000e+00 
0.0000000000000000e+00 0.0000000000000000e+00 0.0000000000000000e+00 
0.0000000000000000e+00 0.0000000000000000e+00 0.0000000000000000e+00 
0.0000000000000000e+00 0.0000000000000000e+00 0.0000000000000000e+00 
0.0000000000000000e+00 0.0000000000000000e+00 0.0000000000000000e+00 
0.0000000000000000e+00 0.0000000000000000e+00 0.0000000000000000e+00 
0.0000000000000000e+00 0.0000000000000000e+00 0.0000000000000000e+00 
0.0000000000000000e+00 0.0000000000000000e+00 0.0000000000000000e+00 
0.0000000000000000e+00 0.0000000000000000e+00 0.0000000000000000e+00 
0.0000000000000000e+00 0.0000000000000000e+00 0.0000000000000000e+00 
0.0000000000000000e+00 0.0000000000000000e+00 0.0000000000000000e+00 
0.0000000000000000e+00 0.0000000000000000e+00 0.0000000000000000e+00 
0.0000000000000000e+00 0.0000000000000000e+00 0.0000000000000000e+00 
0.0000000000000000e+00 0.0000000000000000e+00 0.0000000000000000e+00 
0.0000000000000000e+00 0.0000000000000000e+00 0.0000000000000000e+00 
0.0000000000000000e+00 0.0000000000000000e+00 0.0000000000000000e+00 
0.0000000000000000e+00 0.0000000000000000e+00 0.0000000000000000e+00 
0.0000000000000000e+00 0.0000000000000000e+00 0.0000000000000000e+00 
0.0000000000000000e+00 0.0000000000000000e+00 0.0000000000000000e+00 
0.0000000000000000e+00 0.0000000000000000e+00 0.0000000000000000e+00 
0.0000000000000000e+00 0.0000000000000000e+00 0.0000000000000000e+00 
0.0000000000000000e+00 0.0000000000000000e+00 0.0000000000000000e+00 
0.0000000000000000e+00 0.0000000000000000e+00 0.0000000000000000e+00 
0.0000000000000000e+00 0.0000000000000000e+00 0.0000000000000000e+00 
0.0000000000000000e+00 0.0000000000000000e+00 0.0000000000000000e+00 
0.0000000000000000e+00 0.0000000000000000e+00 0.0000000000000000e+00 
0.0000000000000000e+00 0.0000000000000000e+00 0.0000000000000000e+00 
0.0000000000000000e+00 0.0000000000000000e+00 0.0000000000000000e+00 
0.0000000000000000e+00 0.0000000000000000e+00 0.0000000000000000e+00 
0.0000000000000000e+00 0.0000000000000000e+00 0.0000000000000000e+00 
0.0000000000000000e+00 0.0000000000000000e+00 0.0000000000000000e+00 
0.0000000000000000e+00 0.0000000000000000e+00 0.0000000000000000e+00 
0.0000000000000000e+00 0.0000000000000000e+00 0.0000000000000000e+00 
0.0000000000000000e+00 0.0000000000000000e+00 0.0000000000000000e+00 
0.0000000000000000e+00 0.0000000000000000e+00 0.0000000000000000e+00 
0.0000000000000000e+00 0.0000000000000000e+00 0.0000000000000000e+00 
0.0000000000000000e+00 0.0000000000000000e+00 0.0000000000000000e+00 
0.0000000000000000e+00 0.0000000000000000e+00 0.0000000000000000e+00 
0.0000000000000000e+00 0.0000000000000000e+00 0.0000000000000000e+00 
0.0000000000000000e+00 0.0000000000000000e+00 0.0000000000000000e+00 
0.0000000000000000e+00 0.0000000000000000e+00 0.0000000000000000e+00 
0.0000000000000000e+00 0.0000000000000000e+00 0.0000000000000000e+00 
0.0000000000000000e+00 0.0000000000000000e+00 0.0000000000000000e+00 
0.0000000000000000e+00 0.0000000000000000e+00 0.0000000000000000e+00 
0.0000000000000000e+00 0.0000000000000000e+00 0.0000000000000000e+00 
0.0000000000000000e+00 0.0000000000000000e+00 0.0000000000000000e+00 
0.0000000000000000e+00 0.0000000000000000e+00 0.0000000000000000e+00 
0.0000000000000000e+00 0.0000000000000000e+00 0.0000000000000000e+00 
0.0000000000000000e+00 0.0000000000000000e+00 0.0000000000000000e+00 
0.0000000000000000e+00 0.0000000000000000e+00 0.0000000000000000e+00 

VECTORS DisplacementDeltas0 float
1.1253629654713577e-318 0.0000000000000000e+00 0.0000000000000000e+00 
-1.6493243505215166e-02 0.0000000000000000e+00 -7.5798979144295120e-02 
-2.1706725796343612e-02 0.0000000000000000e+00 -7.4861096342779709e-02 
-2.2484760568184256e-02 0.0000000000000000e+00 -7.4907141247737785e-02 
-1.9008531444488982e-02 0.0000000000000000e+00 -7.5027277180511831e-02 
-2.1582085949611612e-02 0.0000000000000000e+00 -7.5068099910543640e-02 
-2.2576412709498728e-02 0.0000000000000000e+00 -7.4559279761741648e-02 
-1.9348722173728433e-02 0.0000000000000000e+00 -7.3895119612815419e-02 
-1.8543438707530766e-02 0.0000000000000000e+00 -7.7004538523646082e-02 
-2.0578026340533268e-02 0.0000000000000000e+00 -7.5660369320088572e-02 
-2.2122185814109060e-02 0.0000000000000000e+00 -7.5042453504758022e-02 
-2.0830245491675531e-02 0.0000000000000000e+00 -7.6811219453448598e-02 
-2.0357430298596921e-02 0.0000000000000000e+00 -7.6587114688940972e-02 
-2.0441444494380651e-02 0.0000000000000000e+00 -7.5282548670994154e-02 
-2.2223019628543644e-02 0.0000000000000000e+00 -7.4584927088209740e-02 
-2.1739897235061409e-02 0.0000000000000000e+00 -7.4805448565031685e-02 
-2.1617099509592258e-02 0.0000000000000000e+00 -7.5824897151782533e-02 
-1.9994359432337058e-02 0.0000000000000000e+00 -7.3891754403617116e-02 
-8.3777794879916490e-03 0.0000000000000000e+00 -7.1957450911485143e-02 
-8.6013751506808234e-03 0.0000000000000000e+00 -8.1261673142173585e-02 
-8.6357108974710051e-03 0.0000000000000000e+00 -8.1786316901967804e-02 
-8.4869285360665569e-03 0.0000000000000000e+00 -7.1947887492512907e-02 
-1.4447986912096727e-02 0.0000000000000000e+00 -7.2690057422722776e-02 
-1.7415082252417391e-02 0.0000000000000000e+00 -7.7352349512859742e-02 
-1.7690775709350209e-02 0.0000000000000000e+00 -7.7481361826717221e-02 
-1.4561218608772075e-02 0.0000000000000000e+00 -7.2485413259477494e-02 
-7.2555378403976190e-03 0.0000000000000000e+00 -8.1450696513235332e-02 
-4.3621368478190259e-03 0.0000000000000000e+00 -7.4873994479478623e-02 
2.0763760042759316e-02 0.0000000000000000e+00 -7.2532521737257771e-02 
2.3392829367710227e-02 0.0000000000000000e+00 -7.5703782714459725e-02 
2.3563658460660664e-02 0.0000000000000000e+00 -7.5981804930990743e-02 
2.0886271959871347e-02 0.0000000000000000e+00 -7.2741454691796686e-02 
8.6209947506487028e-03 0.0000000000000000e+00 -7.2921329120418016e-02 
6.7258381993495209e-03 0.0000000000000000e+00 -8.2296821028797790e-02 
6.9498464179426345e-03 0.0000000000000000e+00 -8.2687750517886072e-02 
8.6440953851226465e-03 0.0000000000000000e+00 -7.3130786927620650e-02 
1.9479762404072787e-02 0.0000000000000000e+00 -7.8704657707480696e-02 
1.7646143246999035e-02 0.0000000000000000e+00 -6.8698403345792844e-02 
2.6099940886792211e-02 0.0000000000000000e+00 -1.7142479834636088e-02 
3.3017747206377582e-02 0.0000000000000000e+00 -2.6638878232973437e-02 
3.3064313824468741e-02 0.0000000000000000e+00 -2.6609338330292779e-02 
2.6077146836762377e-02 0.0000000000000000e+00 -1.7076802093625883e-02 
2.4219258104907479e-02 0.0000000000000000e+00 -4.5311597300408644e-02 
3.4032926784933748e-02 0.0000000000000000e+00 -5.6722376738272663e-02 
3.4128453378489174e-02 0.0000000000000000e+00 -5.6810904046420981e-02 
2.4318298104836322e-02 0.0000000000000000e+00 -4.5356614978756531e-02 
3.4785086650855071e-02 0.0000000000000000e+00 -3.1546878453182707e-02 
2.0135254326610348e-02 0.0000000000000000e+00 -2.7377965400238145e-02 
0.0000000000000000e+00 0.0000000000000000e+00 0.0000000000000000e+00 
0.0000000000000000e+00 0.0000000000000000e+00 0.0000000000000000e+00 
0.0000000000000000e+00 0.0000000000000000e+00 0.0000000000000000e+00 
0.0000000000000000e+00 0.0000000000000000e+00 0.0000000000000000e+00 
1.2340528175910697e-02 0.0000000000000000e+00 -8.1156944772823505e-03 
2.1681447272540014e-02 0.0000000000000000e+00 -6.7644690387920880e-03 
2.1756317994400292e-02 0.0000000000000000e+00 -6.8500236886862853e-03 
1.2388723534245622e-02 0.0000000000000000e+00 -8.2048764032001779e-03 
0.0000000000000000e+00 0.0000000000000000e+00 0.0000000000000000e+00 
0.0000000000000000e+00 0.0000000000000000e+00 0.0000000000000000e+00 

VECTORS Forces0 float
8.8847415104332672e+00 -1.6753869944478765e+00 2.6907812802725384e-01 
6.3660772447997473e+01 8.3705448940701217e+00 1.7229777336721718e+01 
2.0391959305569269e+01 1.0485843516006508e+01 1.8154807851558221e+01 
1.3694212299455476e+01 -3.8393203607935260e+00 1.7170270517916966e-01 
-1.4958186303327318e+01 -2.5580730921030739e+00 -5.6261606807737774e+00 
-3.3542068200537329e+01 -1.4426620959673669e-01 1.3860420644134107e+01 
-3.3663734064522714e+01 -1.5460137343968938e-01 1.4416141198872266e+01 
-3.0516885635487412e-01 4.3597019065839886e+00 6.9622560714468333e+00 
0.0000000000000000e+00 0.0000000000000000e+00 0.0000000000000000e+00 
0.0000000000000000e+00 0.0000000000000000e+00 0.0000000000000000e+00 
0.0000000000000000e+00 0.0000000000000000e+00 0.0000000000000000e+00 
0.0000000000000000e+00 0.0000000000000000e+00 0.0000000000000000e+00 
0.0000000000000000e+00 0.0000000000000000e+00 0.0000000000000000e+00 
0.0000000000000000e+00 0.0000000000000000e+00 0.0000000000000000e+00 
0.0000000000000000e+00 0.0000000000000000e+00 0.0000000000000000e+00 
0.0000000000000000e+00 0.0000000000000000e+00 0.0000000000000000e+00 
0.0000000000000000e+00 0.0000000000000000e+00 0.0000000000000000e+00 
0.0000000000000000e+00 0.0000000000000000e+00 0.0000000000000000e+00 
8.9079242415316262e+00 -3.0475098083533370e-02 -2.2302466567246464e+00 
-3.4002460340845580e+01 1.9642104339658656e-01 5.3341540627129609e+00 
-3.0694861660832803e+01 1.7708893621271227e-01 4.7924400094342419e+00 
9.8667868740776488e+00 -3.3498396096440716e-02 -2.4728701481963880e+00 
0.0000000000000000e+00 0.0000000000000000e+00 0.0000000000000000e+00 
0.0000000000000000e+00 0.0000000000000000e+00 0.0000000000000000e+00 
0.0000000000000000e+00 0.0000000000000000e+00 0.0000000000000000e+00 
0.0000000000000000e+00 0.0000000000000000e+00 0.0000000000000000e+00 
0.0000000000000000e+00 0.0000000000000000e+00 0.0000000000000000e+00 
0.0000000000000000e+00 0.0000000000000000e+00 0.0000000000000000e+00 
8.6720225092663313e+01 -1.7078687859830016e-01 6.1419017702320232e+01 
3.9720885526288909e+00 -1.3932607858986387e-02 3.2093932813451111e+00 
4.6564733626144621e+00 -1.6390790714911275e-02 3.7856954244613110e+00 
8.5657974590160137e+01 -1.6911929507634332e-01 6.1114337432761523e+01 
0.0000000000000000e+00 0.0000000000000000e+00 0.0000000000000000e+00 
0.0000000000000000e+00 0.0000000000000000e+00 0.0000000000000000e+00 
0.0000000000000000e+00 0.0000000000000000e+00 0.0000000000000000e+00 
0.0000000000000000e+00 0.0000000000000000e+00 0.0000000000000000e+00 
0.0000000000000000e+00 0.0000000000000000e+00 0.0000000000000000e+00 
0.0000000000000000e+00 0.0000000000000000e+00 0.0000000000000000e+00 
-1.5139008160061644e+01 -6.8190616364389306e-02 1.2488526221601693e+02 
-8.9587649537628788e-01 -3.2452372490292180e-03 5.3299884833870630e+00 
-8.2716164103290268e-01 -2.9853027723788987e-03 4.9031605444564921e+00 
-1.5222050335573522e+01 -6.8447251553727578e-02 1.2535301049805926e+02 
0.0000000000000000e+00 0.0000000000000000e+00 0.0000000000000000e+00 
0.0000000000000000e+00 0.0000000000000000e+00 0.0000000000000000e+00 
0.0000000000000000e+00 0.0000000000000000e+00 0.0000000000000000e+00 
0.0000000000000000e+00 0.0000000000000000e+00 0.0000000000000000e+00 
0.0000000000000000e+00 0.0000000000000000e+00 0.0000000000000000e+00 
0.0000000000000000e+00 0.0000000000000000e+00 0.0000000000000000e+00 
-4.5496403196698481e+01 -9.0371771793694069e-03 6.0836271144355742e+01 
3.6557311523688383e+00 5.3414373800446727e-04 -4.9690330428182303e+00 
3.6470291755691036e+00 5.3268416941644123e-04 -4.9552938963316704e+00 
-4.4472118072504884e+01 -8.8260535587050548e-03 5.9415395548255638e+01 
0.0000000000000000e+00 0.0000000000000000e+00 0.0000000000000000e+00 
0.0000000000000000e+00 0.0000000000000000e+00 0.0000000000000000e+00 
0.0000000000000000e+00 0.0000000000000000e+00 0.0000000000000000e+00 
0.0000000000000000e+00 0.0000000000000000e+00 0.0000000000000000e+00 
0.0000000000000000e+00 0.0000000000000000e+00 0.0000000000000000e+00 
0.0000000000000000e+00 0.0000000000000000e+00 0.0000000000000000e+00 

