# vtk DataFile Version 2.0

ASCII

DATASET UNSTRUCTURED_GRID

POINTS 58 float 

5.0000000000000003e-02  0.0000000000000000e+00  1.0000000000000000e+00
-5.0000000000000003e-02  0.0000000000000000e+00  1.0000000000000000e+00
-5.0000000000000003e-02  2.9999999999999999e-01  1.0000000000000000e+00
5.0000000000000003e-02  2.9999999999999999e-01  1.0000000000000000e+00
5.0000000000000003e-02  0.0000000000000000e+00  8.0000000000000004e-01
-5.0000000000000003e-02  0.0000000000000000e+00  8.0000000000000004e-01
-5.0000000000000003e-02  2.9999999999999999e-01  8.0000000000000004e-01
5.0000000000000003e-02  2.9999999999999999e-01  8.0000000000000004e-01
0.0000000000000000e+00  0.0000000000000000e+00  1.0000000000000000e+00
-5.0000000000000003e-02  1.4999999999999999e-01  1.0000000000000000e+00
0.0000000000000000e+00  2.9999999999999999e-01  1.0000000000000000e+00
5.0000000000000003e-02  1.4999999999999999e-01  1.0000000000000000e+00
5.0000000000000003e-02  0.0000000000000000e+00  9.0000000000000002e-01
-5.0000000000000003e-02  0.0000000000000000e+00  9.0000000000000002e-01
-5.0000000000000003e-02  2.9999999999999999e-01  9.0000000000000002e-01
5.0000000000000003e-02  2.9999999999999999e-01  9.0000000000000002e-01
-5.0000000000000003e-02  1.4999999999999999e-01  8.0000000000000004e-01
5.0000000000000003e-02  1.4999999999999999e-01  8.0000000000000004e-01
5.0000000000000003e-02  0.0000000000000000e+00  5.9999999999999998e-01
-5.0000000000000003e-02  0.0000000000000000e+00  5.9999999999999998e-01
-5.0000000000000003e-02  2.9999999999999999e-01  5.9999999999999998e-01
5.0000000000000003e-02  2.9999999999999999e-01  5.9999999999999998e-01
5.0000000000000003e-02  0.0000000000000000e+00  6.9999999999999996e-01
-5.0000000000000003e-02  0.0000000000000000e+00  6.9999999999999996e-01
-5.0000000000000003e-02  2.9999999999999999e-01  6.9999999999999996e-01
5.0000000000000003e-02  2.9999999999999999e-01  6.9999999999999996e-01
-5.0000000000000003e-02  1.4999999999999999e-01  5.9999999999999998e-01
5.0000000000000003e-02  1.4999999999999999e-01  5.9999999999999998e-01
5.0000000000000003e-02  0.0000000000000000e+00  4.0000000000000002e-01
-5.0000000000000003e-02  0.0000000000000000e+00  4.0000000000000002e-01
-5.0000000000000003e-02  2.9999999999999999e-01  4.0000000000000002e-01
5.0000000000000003e-02  2.9999999999999999e-01  4.0000000000000002e-01
5.0000000000000003e-02  0.0000000000000000e+00  5.0000000000000000e-01
-5.0000000000000003e-02  0.0000000000000000e+00  5.0000000000000000e-01
-5.0000000000000003e-02  2.9999999999999999e-01  5.0000000000000000e-01
5.0000000000000003e-02  2.9999999999999999e-01  5.0000000000000000e-01
-5.0000000000000003e-02  1.4999999999999999e-01  4.0000000000000002e-01
5.0000000000000003e-02  1.4999999999999999e-01  4.0000000000000002e-01
5.0000000000000003e-02  0.0000000000000000e+00  2.0000000000000001e-01
-5.0000000000000003e-02  0.0000000000000000e+00  2.0000000000000001e-01
-5.0000000000000003e-02  2.9999999999999999e-01  2.0000000000000001e-01
5.0000000000000003e-02  2.9999999999999999e-01  2.0000000000000001e-01
5.0000000000000003e-02  0.0000000000000000e+00  2.9999999999999999e-01
-5.0000000000000003e-02  0.0000000000000000e+00  2.9999999999999999e-01
-5.0000000000000003e-02  2.9999999999999999e-01  2.9999999999999999e-01
5.0000000000000003e-02  2.9999999999999999e-01  2.9999999999999999e-01
-5.0000000000000003e-02  1.4999999999999999e-01  2.0000000000000001e-01
5.0000000000000003e-02  1.4999999999999999e-01  2.0000000000000001e-01
5.0000000000000003e-02  0.0000000000000000e+00  0.0000000000000000e+00
-5.0000000000000003e-02  0.0000000000000000e+00  0.0000000000000000e+00
-5.0000000000000003e-02  2.9999999999999999e-01  0.0000000000000000e+00
5.0000000000000003e-02  2.9999999999999999e-01  0.0000000000000000e+00
5.0000000000000003e-02  0.0000000000000000e+00  1.0000000000000001e-01
-5.0000000000000003e-02  0.0000000000000000e+00  1.0000000000000001e-01
-5.0000000000000003e-02  2.9999999999999999e-01  1.0000000000000001e-01
5.0000000000000003e-02  2.9999999999999999e-01  1.0000000000000001e-01
-5.0000000000000003e-02  1.4999999999999999e-01  0.0000000000000000e+00
5.0000000000000003e-02  1.4999999999999999e-01  0.0000000000000000e+00

CELLS 0 0


CELL_TYPES 0


POINT_DATA 58

VECTORS VertexNormals float

0.0000000000000000e+00 0.0000000000000000e+00 0.0000000000000000e+00 
0.0000000000000000e+00 0.0000000000000000e+00 0.0000000000000000e+00 
0.0000000000000000e+00 0.0000000000000000e+00 0.0000000000000000e+00 
0.0000000000000000e+00 0.0000000000000000e+00 0.0000000000000000e+00 
0.0000000000000000e+00 0.0000000000000000e+00 0.0000000000000000e+00 
0.0000000000000000e+00 0.0000000000000000e+00 0.0000000000000000e+00 
0.0000000000000000e+00 0.0000000000000000e+00 0.0000000000000000e+00 
0.0000000000000000e+00 0.0000000000000000e+00 0.0000000000000000e+00 
0.0000000000000000e+00 0.0000000000000000e+00 0.0000000000000000e+00 
0.0000000000000000e+00 0.0000000000000000e+00 0.0000000000000000e+00 
0.0000000000000000e+00 0.0000000000000000e+00 0.0000000000000000e+00 
0.0000000000000000e+00 0.0000000000000000e+00 0.0000000000000000e+00 
0.0000000000000000e+00 0.0000000000000000e+00 0.0000000000000000e+00 
0.0000000000000000e+00 0.0000000000000000e+00 0.0000000000000000e+00 
0.0000000000000000e+00 0.0000000000000000e+00 0.0000000000000000e+00 
0.0000000000000000e+00 0.0000000000000000e+00 0.0000000000000000e+00 
0.0000000000000000e+00 0.0000000000000000e+00 0.0000000000000000e+00 
0.0000000000000000e+00 0.0000000000000000e+00 0.0000000000000000e+00 
0.0000000000000000e+00 0.0000000000000000e+00 0.0000000000000000e+00 
0.0000000000000000e+00 0.0000000000000000e+00 0.0000000000000000e+00 
0.0000000000000000e+00 0.0000000000000000e+00 0.0000000000000000e+00 
0.0000000000000000e+00 0.0000000000000000e+00 0.0000000000000000e+00 
0.0000000000000000e+00 0.0000000000000000e+00 0.0000000000000000e+00 
0.0000000000000000e+00 0.0000000000000000e+00 0.0000000000000000e+00 
0.0000000000000000e+00 0.0000000000000000e+00 0.0000000000000000e+00 
0.0000000000000000e+00 0.0000000000000000e+00 0.0000000000000000e+00 
0.0000000000000000e+00 0.0000000000000000e+00 0.0000000000000000e+00 
0.0000000000000000e+00 0.0000000000000000e+00 0.0000000000000000e+00 
0.0000000000000000e+00 0.0000000000000000e+00 0.0000000000000000e+00 
0.0000000000000000e+00 0.0000000000000000e+00 0.0000000000000000e+00 
0.0000000000000000e+00 0.0000000000000000e+00 0.0000000000000000e+00 
0.0000000000000000e+00 0.0000000000000000e+00 0.0000000000000000e+00 
0.0000000000000000e+00 0.0000000000000000e+00 0.0000000000000000e+00 
0.0000000000000000e+00 0.0000000000000000e+00 0.0000000000000000e+00 
0.0000000000000000e+00 0.0000000000000000e+00 0.0000000000000000e+00 
0.0000000000000000e+00 0.0000000000000000e+00 0.0000000000000000e+00 
0.0000000000000000e+00 0.0000000000000000e+00 0.0000000000000000e+00 
0.0000000000000000e+00 0.0000000000000000e+00 0.0000000000000000e+00 
0.0000000000000000e+00 0.0000000000000000e+00 0.0000000000000000e+00 
0.0000000000000000e+00 0.0000000000000000e+00 0.0000000000000000e+00 
0.0000000000000000e+00 0.0000000000000000e+00 0.0000000000000000e+00 
0.0000000000000000e+00 0.0000000000000000e+00 0.0000000000000000e+00 
0.0000000000000000e+00 0.0000000000000000e+00 0.0000000000000000e+00 
0.0000000000000000e+00 0.0000000000000000e+00 0.0000000000000000e+00 
0.0000000000000000e+00 0.0000000000000000e+00 0.0000000000000000e+00 
0.0000000000000000e+00 0.0000000000000000e+00 0.0000000000000000e+00 
0.0000000000000000e+00 0.0000000000000000e+00 0.0000000000000000e+00 
0.0000000000000000e+00 0.0000000000000000e+00 0.0000000000000000e+00 
0.0000000000000000e+00 0.0000000000000000e+00 0.0000000000000000e+00 
0.0000000000000000e+00 0.0000000000000000e+00 0.0000000000000000e+00 
0.0000000000000000e+00 0.0000000000000000e+00 0.0000000000000000e+00 
0.0000000000000000e+00 0.0000000000000000e+00 0.0000000000000000e+00 
0.0000000000000000e+00 0.0000000000000000e+00 0.0000000000000000e+00 
0.0000000000000000e+00 0.0000000000000000e+00 0.0000000000000000e+00 
0.0000000000000000e+00 0.0000000000000000e+00 0.0000000000000000e+00 
0.0000000000000000e+00 0.0000000000000000e+00 0.0000000000000000e+00 
0.0000000000000000e+00 0.0000000000000000e+00 0.0000000000000000e+00 
0.0000000000000000e+00 0.0000000000000000e+00 0.0000000000000000e+00 

VECTORS DisplacementDeltas0 float
3.0722978120992075e-318 0.0000000000000000e+00 0.0000000000000000e+00 
3.4140144687658451e-03 0.0000000000000000e+00 -1.4983326409882087e-04 
4.0948748081844344e-03 0.0000000000000000e+00 -3.7953918574775108e-04 
2.8103757281104191e-03 0.0000000000000000e+00 -6.4547012824826768e-04 
1.6013853757189268e-03 0.0000000000000000e+00 -3.5920464762497476e-04 
1.1856535564516955e-03 0.0000000000000000e+00 3.8233667646621968e-04 
1.0135598844752164e-03 0.0000000000000000e+00 3.0105860465004270e-04 
1.5012991968743623e-03 0.0000000000000000e+00 -4.3527732329043107e-04 
3.2632492671969115e-03 0.0000000000000000e+00 -4.7258030346270517e-04 
3.5246468734553942e-03 0.0000000000000000e+00 7.4139770113878828e-04 
3.3811126655928399e-03 0.0000000000000000e+00 -5.4820871507740713e-04 
4.2783604363513259e-03 0.0000000000000000e+00 -7.8792331151111351e-04 
2.1542776340918962e-03 0.0000000000000000e+00 -2.2849595900761036e-04 
2.6008790747163988e-03 0.0000000000000000e+00 7.1015289168684234e-05 
2.4501317841366674e-03 0.0000000000000000e+00 -4.9542181316331057e-05 
1.9267176560506566e-03 0.0000000000000000e+00 -1.8619517086860304e-04 
1.6621620292985946e-03 0.0000000000000000e+00 5.4980348682728830e-04 
1.2069047600971130e-03 0.0000000000000000e+00 -6.1228295477623585e-04 
-2.1165184917571833e-05 0.0000000000000000e+00 2.9756415800972339e-05 
3.8850663083932310e-04 0.0000000000000000e+00 2.8382587543433182e-04 
4.3934664067125446e-04 0.0000000000000000e+00 2.8191931253161793e-04 
-1.5056998568690300e-05 0.0000000000000000e+00 7.1453377303695023e-05 
4.0942574433459926e-04 0.0000000000000000e+00 -3.3428457890226089e-04 
1.8235467690551268e-04 0.0000000000000000e+00 3.0550088650355887e-04 
2.1372119103136645e-04 0.0000000000000000e+00 3.7490609361315189e-04 
4.5523018248169218e-04 0.0000000000000000e+00 -3.3537425281472341e-04 
2.9924141910776851e-04 0.0000000000000000e+00 7.5471360229644016e-05 
3.1104491727473849e-04 0.0000000000000000e+00 9.7375015956195561e-05 
2.5858903779624399e-04 0.0000000000000000e+00 2.0288165614959697e-04 
4.5429957437067003e-04 0.0000000000000000e+00 1.4734852253379431e-04 
5.0483201375646188e-04 0.0000000000000000e+00 1.8198349866717408e-04 
2.7241588050573508e-04 0.0000000000000000e+00 2.5495415555242234e-04 
1.4444363087735541e-04 0.0000000000000000e+00 1.2273646874279604e-04 
3.4927319306659986e-04 0.0000000000000000e+00 1.0856334013302848e-04 
2.9473464438261975e-04 0.0000000000000000e+00 1.2649483225319794e-04 
1.2203103685066465e-04 0.0000000000000000e+00 1.5278989416916573e-04 
4.8403221547681219e-04 0.0000000000000000e+00 1.4447908359856089e-04 
4.8363788901882370e-04 0.0000000000000000e+00 2.1121910887133787e-04 
6.4190570917962910e-05 0.0000000000000000e+00 -5.0062302553132642e-05 
1.3867803696944740e-04 0.0000000000000000e+00 4.1503902526994585e-05 
1.2079546904355165e-04 0.0000000000000000e+00 3.7862487197472996e-05 
5.4779124165749648e-05 0.0000000000000000e+00 -4.8479497899902481e-05 
2.3781150815206783e-04 0.0000000000000000e+00 7.2228173175732001e-05 
3.7110794484506842e-04 0.0000000000000000e+00 1.6463666712936804e-04 
3.7944699607773226e-04 0.0000000000000000e+00 1.6483072933470727e-04 
2.3673843162115587e-04 0.0000000000000000e+00 5.8541917937134026e-05 
3.6646210289537995e-04 0.0000000000000000e+00 1.1383107793160906e-04 
3.2488358969544535e-04 0.0000000000000000e+00 -2.3313148643966044e-05 
0.0000000000000000e+00 0.0000000000000000e+00 0.0000000000000000e+00 
0.0000000000000000e+00 0.0000000000000000e+00 0.0000000000000000e+00 
0.0000000000000000e+00 0.0000000000000000e+00 0.0000000000000000e+00 
0.0000000000000000e+00 0.0000000000000000e+00 0.0000000000000000e+00 
-6.9175003375854108e-06 0.0000000000000000e+00 -2.8365164340076612e-05 
1.8681094834235238e-06 0.0000000000000000e+00 1.9586010862915221e-05 
8.4416699500191358e-06 0.0000000000000000e+00 1.7663662407089707e-05 
-1.2354324513328926e-06 0.0000000000000000e+00 -2.4639403480668831e-05 
0.0000000000000000e+00 0.0000000000000000e+00 0.0000000000000000e+00 
0.0000000000000000e+00 0.0000000000000000e+00 0.0000000000000000e+00 

VECTORS Forces0 float
7.4311978427513132e+00 -2.4706567078519290e-01 3.2973714804704786e+00 
-3.3886542124010477e-01 -2.0922503196786862e-04 1.7064985488914522e-01 
-6.1315051279036670e-01 -4.1065001805101552e-04 3.3247281010924223e-01 
7.0741642145518124e+00 -2.3525612221009742e-01 3.1324968045619941e+00 
-7.7518052023572515e-01 3.7965907199341820e-03 4.1163235635964610e-03 
3.7666750823727906e+00 3.5698872000089949e-03 -1.1184942899283291e-01 
3.9395858339432213e+00 3.7342786481819605e-03 -1.1666408630542438e-01 
-7.0562608661367754e-01 3.4532571420259877e-03 1.6233524771621613e-02 
0.0000000000000000e+00 0.0000000000000000e+00 0.0000000000000000e+00 
0.0000000000000000e+00 0.0000000000000000e+00 0.0000000000000000e+00 
0.0000000000000000e+00 0.0000000000000000e+00 0.0000000000000000e+00 
0.0000000000000000e+00 0.0000000000000000e+00 0.0000000000000000e+00 
0.0000000000000000e+00 0.0000000000000000e+00 0.0000000000000000e+00 
0.0000000000000000e+00 0.0000000000000000e+00 0.0000000000000000e+00 
0.0000000000000000e+00 0.0000000000000000e+00 0.0000000000000000e+00 
0.0000000000000000e+00 0.0000000000000000e+00 0.0000000000000000e+00 
0.0000000000000000e+00 0.0000000000000000e+00 0.0000000000000000e+00 
0.0000000000000000e+00 0.0000000000000000e+00 0.0000000000000000e+00 
2.4820610327746908e+00 6.1469809166012838e-04 -1.2010282889815897e-02 
1.3675786805963821e+00 2.8437331096097565e-04 -7.8958744781368276e-03 
1.3575439906526734e+00 2.8228386402054514e-04 -7.1877522639387306e-03 
2.5043043259728615e+00 6.1983818904107636e-04 -1.0841563842353909e-02 
0.0000000000000000e+00 0.0000000000000000e+00 0.0000000000000000e+00 
0.0000000000000000e+00 0.0000000000000000e+00 0.0000000000000000e+00 
0.0000000000000000e+00 0.0000000000000000e+00 0.0000000000000000e+00 
0.0000000000000000e+00 0.0000000000000000e+00 0.0000000000000000e+00 
0.0000000000000000e+00 0.0000000000000000e+00 0.0000000000000000e+00 
0.0000000000000000e+00 0.0000000000000000e+00 0.0000000000000000e+00 
1.8611429663600796e+00 -4.2712462062096186e-05 1.7427409199563032e-03 
1.4533390699350102e+00 -8.3165314449437687e-05 1.8711231252902512e-03 
1.4451812323793394e+00 -8.2700344860856605e-05 1.9153829241440620e-03 
1.8536763141718329e+00 -4.2539929185155204e-05 1.8287019886959203e-03 
0.0000000000000000e+00 0.0000000000000000e+00 0.0000000000000000e+00 
0.0000000000000000e+00 0.0000000000000000e+00 0.0000000000000000e+00 
0.0000000000000000e+00 0.0000000000000000e+00 0.0000000000000000e+00 
0.0000000000000000e+00 0.0000000000000000e+00 0.0000000000000000e+00 
0.0000000000000000e+00 0.0000000000000000e+00 0.0000000000000000e+00 
0.0000000000000000e+00 0.0000000000000000e+00 0.0000000000000000e+00 
1.6722165736415222e+00 -2.8266946520234576e-05 -7.5511833257291099e-03 
2.8113671353542706e+00 -5.0354058604248556e-05 -1.3318265555682253e-02 
2.8165731062883941e+00 -5.0449348731935986e-05 -1.3438081179698838e-02 
1.6748451665433242e+00 -2.8311219985833620e-05 -7.5933538657210068e-03 
0.0000000000000000e+00 0.0000000000000000e+00 0.0000000000000000e+00 
0.0000000000000000e+00 0.0000000000000000e+00 0.0000000000000000e+00 
0.0000000000000000e+00 0.0000000000000000e+00 0.0000000000000000e+00 
0.0000000000000000e+00 0.0000000000000000e+00 0.0000000000000000e+00 
0.0000000000000000e+00 0.0000000000000000e+00 0.0000000000000000e+00 
0.0000000000000000e+00 0.0000000000000000e+00 0.0000000000000000e+00 
1.0254689019192433e+00 -3.7110711092422523e-06 -9.0816953381140774e-03 
1.1512789521349380e+00 -2.5817874207565305e-06 -1.0668799391671070e-02 
1.1504672661812003e+00 -2.5800130671007426e-06 -1.0669005662361021e-02 
1.0246943590175843e+00 -3.7082467515941616e-06 -9.0859748487270471e-03 
0.0000000000000000e+00 0.0000000000000000e+00 0.0000000000000000e+00 
0.0000000000000000e+00 0.0000000000000000e+00 0.0000000000000000e+00 
0.0000000000000000e+00 0.0000000000000000e+00 0.0000000000000000e+00 
0.0000000000000000e+00 0.0000000000000000e+00 0.0000000000000000e+00 
0.0000000000000000e+00 0.0000000000000000e+00 0.0000000000000000e+00 
0.0000000000000000e+00 0.0000000000000000e+00 0.0000000000000000e+00 

