# vtk DataFile Version 2.0

ASCII

DATASET UNSTRUCTURED_GRID

POINTS 58 double 

5.0000000000000003e-02  0.0000000000000000e+00  1.0000000000000000e+00
-5.0000000000000003e-02  0.0000000000000000e+00  1.0000000000000000e+00
-5.0000000000000003e-02  2.9999999999999999e-01  1.0000000000000000e+00
5.0000000000000003e-02  2.9999999999999999e-01  1.0000000000000000e+00
5.0000000000000003e-02  0.0000000000000000e+00  8.0000000000000004e-01
-5.0000000000000003e-02  0.0000000000000000e+00  8.0000000000000004e-01
-5.0000000000000003e-02  2.9999999999999999e-01  8.0000000000000004e-01
5.0000000000000003e-02  2.9999999999999999e-01  8.0000000000000004e-01
0.0000000000000000e+00  0.0000000000000000e+00  1.0000000000000000e+00
-5.0000000000000003e-02  1.4999999999999999e-01  1.0000000000000000e+00
0.0000000000000000e+00  2.9999999999999999e-01  1.0000000000000000e+00
5.0000000000000003e-02  1.4999999999999999e-01  1.0000000000000000e+00
5.0000000000000003e-02  0.0000000000000000e+00  9.0000000000000002e-01
-5.0000000000000003e-02  0.0000000000000000e+00  9.0000000000000002e-01
-5.0000000000000003e-02  2.9999999999999999e-01  9.0000000000000002e-01
5.0000000000000003e-02  2.9999999999999999e-01  9.0000000000000002e-01
-5.0000000000000003e-02  1.4999999999999999e-01  8.0000000000000004e-01
5.0000000000000003e-02  1.4999999999999999e-01  8.0000000000000004e-01
5.0000000000000003e-02  0.0000000000000000e+00  5.9999999999999998e-01
-5.0000000000000003e-02  0.0000000000000000e+00  5.9999999999999998e-01
-5.0000000000000003e-02  2.9999999999999999e-01  5.9999999999999998e-01
5.0000000000000003e-02  2.9999999999999999e-01  5.9999999999999998e-01
5.0000000000000003e-02  0.0000000000000000e+00  6.9999999999999996e-01
-5.0000000000000003e-02  0.0000000000000000e+00  6.9999999999999996e-01
-5.0000000000000003e-02  2.9999999999999999e-01  6.9999999999999996e-01
5.0000000000000003e-02  2.9999999999999999e-01  6.9999999999999996e-01
-5.0000000000000003e-02  1.4999999999999999e-01  5.9999999999999998e-01
5.0000000000000003e-02  1.4999999999999999e-01  5.9999999999999998e-01
5.0000000000000003e-02  0.0000000000000000e+00  4.0000000000000002e-01
-5.0000000000000003e-02  0.0000000000000000e+00  4.0000000000000002e-01
-5.0000000000000003e-02  2.9999999999999999e-01  4.0000000000000002e-01
5.0000000000000003e-02  2.9999999999999999e-01  4.0000000000000002e-01
5.0000000000000003e-02  0.0000000000000000e+00  5.0000000000000000e-01
-5.0000000000000003e-02  0.0000000000000000e+00  5.0000000000000000e-01
-5.0000000000000003e-02  2.9999999999999999e-01  5.0000000000000000e-01
5.0000000000000003e-02  2.9999999999999999e-01  5.0000000000000000e-01
-5.0000000000000003e-02  1.4999999999999999e-01  4.0000000000000002e-01
5.0000000000000003e-02  1.4999999999999999e-01  4.0000000000000002e-01
5.0000000000000003e-02  0.0000000000000000e+00  2.0000000000000001e-01
-5.0000000000000003e-02  0.0000000000000000e+00  2.0000000000000001e-01
-5.0000000000000003e-02  2.9999999999999999e-01  2.0000000000000001e-01
5.0000000000000003e-02  2.9999999999999999e-01  2.0000000000000001e-01
5.0000000000000003e-02  0.0000000000000000e+00  2.9999999999999999e-01
-5.0000000000000003e-02  0.0000000000000000e+00  2.9999999999999999e-01
-5.0000000000000003e-02  2.9999999999999999e-01  2.9999999999999999e-01
5.0000000000000003e-02  2.9999999999999999e-01  2.9999999999999999e-01
-5.0000000000000003e-02  1.4999999999999999e-01  2.0000000000000001e-01
5.0000000000000003e-02  1.4999999999999999e-01  2.0000000000000001e-01
5.0000000000000003e-02  0.0000000000000000e+00  0.0000000000000000e+00
-5.0000000000000003e-02  0.0000000000000000e+00  0.0000000000000000e+00
-5.0000000000000003e-02  2.9999999999999999e-01  0.0000000000000000e+00
5.0000000000000003e-02  2.9999999999999999e-01  0.0000000000000000e+00
5.0000000000000003e-02  0.0000000000000000e+00  1.0000000000000001e-01
-5.0000000000000003e-02  0.0000000000000000e+00  1.0000000000000001e-01
-5.0000000000000003e-02  2.9999999999999999e-01  1.0000000000000001e-01
5.0000000000000003e-02  2.9999999999999999e-01  1.0000000000000001e-01
-5.0000000000000003e-02  1.4999999999999999e-01  0.0000000000000000e+00
5.0000000000000003e-02  1.4999999999999999e-01  0.0000000000000000e+00

CELLS 0 0


CELL_TYPES 0


POINT_DATA 58

VECTORS VertexNormals double

0.0000000000000000e+00 0.0000000000000000e+00 0.0000000000000000e+00 
0.0000000000000000e+00 0.0000000000000000e+00 0.0000000000000000e+00 
0.0000000000000000e+00 0.0000000000000000e+00 0.0000000000000000e+00 
0.0000000000000000e+00 0.0000000000000000e+00 0.0000000000000000e+00 
0.0000000000000000e+00 0.0000000000000000e+00 0.0000000000000000e+00 
0.0000000000000000e+00 0.0000000000000000e+00 0.0000000000000000e+00 
0.0000000000000000e+00 0.0000000000000000e+00 0.0000000000000000e+00 
0.0000000000000000e+00 0.0000000000000000e+00 0.0000000000000000e+00 
0.0000000000000000e+00 0.0000000000000000e+00 0.0000000000000000e+00 
0.0000000000000000e+00 0.0000000000000000e+00 0.0000000000000000e+00 
0.0000000000000000e+00 0.0000000000000000e+00 0.0000000000000000e+00 
0.0000000000000000e+00 0.0000000000000000e+00 0.0000000000000000e+00 
0.0000000000000000e+00 0.0000000000000000e+00 0.0000000000000000e+00 
0.0000000000000000e+00 0.0000000000000000e+00 0.0000000000000000e+00 
0.0000000000000000e+00 0.0000000000000000e+00 0.0000000000000000e+00 
0.0000000000000000e+00 0.0000000000000000e+00 0.0000000000000000e+00 
0.0000000000000000e+00 0.0000000000000000e+00 0.0000000000000000e+00 
0.0000000000000000e+00 0.0000000000000000e+00 0.0000000000000000e+00 
0.0000000000000000e+00 0.0000000000000000e+00 0.0000000000000000e+00 
0.0000000000000000e+00 0.0000000000000000e+00 0.0000000000000000e+00 
0.0000000000000000e+00 0.0000000000000000e+00 0.0000000000000000e+00 
0.0000000000000000e+00 0.0000000000000000e+00 0.0000000000000000e+00 
0.0000000000000000e+00 0.0000000000000000e+00 0.0000000000000000e+00 
0.0000000000000000e+00 0.0000000000000000e+00 0.0000000000000000e+00 
0.0000000000000000e+00 0.0000000000000000e+00 0.0000000000000000e+00 
0.0000000000000000e+00 0.0000000000000000e+00 0.0000000000000000e+00 
0.0000000000000000e+00 0.0000000000000000e+00 0.0000000000000000e+00 
0.0000000000000000e+00 0.0000000000000000e+00 0.0000000000000000e+00 
0.0000000000000000e+00 0.0000000000000000e+00 0.0000000000000000e+00 
0.0000000000000000e+00 0.0000000000000000e+00 0.0000000000000000e+00 
0.0000000000000000e+00 0.0000000000000000e+00 0.0000000000000000e+00 
0.0000000000000000e+00 0.0000000000000000e+00 0.0000000000000000e+00 
0.0000000000000000e+00 0.0000000000000000e+00 0.0000000000000000e+00 
0.0000000000000000e+00 0.0000000000000000e+00 0.0000000000000000e+00 
0.0000000000000000e+00 0.0000000000000000e+00 0.0000000000000000e+00 
0.0000000000000000e+00 0.0000000000000000e+00 0.0000000000000000e+00 
0.0000000000000000e+00 0.0000000000000000e+00 0.0000000000000000e+00 
0.0000000000000000e+00 0.0000000000000000e+00 0.0000000000000000e+00 
0.0000000000000000e+00 0.0000000000000000e+00 0.0000000000000000e+00 
0.0000000000000000e+00 0.0000000000000000e+00 0.0000000000000000e+00 
0.0000000000000000e+00 0.0000000000000000e+00 0.0000000000000000e+00 
0.0000000000000000e+00 0.0000000000000000e+00 0.0000000000000000e+00 
0.0000000000000000e+00 0.0000000000000000e+00 0.0000000000000000e+00 
0.0000000000000000e+00 0.0000000000000000e+00 0.0000000000000000e+00 
0.0000000000000000e+00 0.0000000000000000e+00 0.0000000000000000e+00 
0.0000000000000000e+00 0.0000000000000000e+00 0.0000000000000000e+00 
0.0000000000000000e+00 0.0000000000000000e+00 0.0000000000000000e+00 
0.0000000000000000e+00 0.0000000000000000e+00 0.0000000000000000e+00 
0.0000000000000000e+00 0.0000000000000000e+00 0.0000000000000000e+00 
0.0000000000000000e+00 0.0000000000000000e+00 0.0000000000000000e+00 
0.0000000000000000e+00 0.0000000000000000e+00 0.0000000000000000e+00 
0.0000000000000000e+00 0.0000000000000000e+00 0.0000000000000000e+00 
0.0000000000000000e+00 0.0000000000000000e+00 0.0000000000000000e+00 
0.0000000000000000e+00 0.0000000000000000e+00 0.0000000000000000e+00 
0.0000000000000000e+00 0.0000000000000000e+00 0.0000000000000000e+00 
0.0000000000000000e+00 0.0000000000000000e+00 0.0000000000000000e+00 
0.0000000000000000e+00 0.0000000000000000e+00 0.0000000000000000e+00 
0.0000000000000000e+00 0.0000000000000000e+00 0.0000000000000000e+00 

VECTORS DisplacementDeltas0 double
0.0000000000000000e+00 0.0000000000000000e+00 0.0000000000000000e+00 
-2.3261683060298216e-02 0.0000000000000000e+00 -7.1121334382946988e-02 
-2.6819284284293615e-02 0.0000000000000000e+00 -7.0836258623290238e-02 
-2.6369974231200632e-02 0.0000000000000000e+00 -6.9269943201761386e-02 
-1.9479341700439912e-02 0.0000000000000000e+00 -7.1760987480399774e-02 
-2.0944457599227029e-02 0.0000000000000000e+00 -7.5811413519108695e-02 
-2.1438272811110853e-02 0.0000000000000000e+00 -7.6078169623269187e-02 
-1.8847386093311658e-02 0.0000000000000000e+00 -7.0692325960817926e-02 
-2.4431852033597545e-02 0.0000000000000000e+00 -7.1042816785640950e-02 
-2.7198497988281223e-02 0.0000000000000000e+00 -7.2006306079560933e-02 
-2.6608449972488735e-02 0.0000000000000000e+00 -6.9922097753256529e-02 
-2.6108721221634351e-02 0.0000000000000000e+00 -6.9199964594734653e-02 
-2.2516436390845482e-02 0.0000000000000000e+00 -7.0859708949917888e-02 
-2.3500158046164676e-02 0.0000000000000000e+00 -7.3248221974835936e-02 
-2.4651079880202320e-02 0.0000000000000000e+00 -7.2828712192824940e-02 
-2.3702101845099091e-02 0.0000000000000000e+00 -6.9796036575672682e-02 
-2.0198849495734611e-02 0.0000000000000000e+00 -7.6312247217546036e-02 
-1.8024932061645266e-02 0.0000000000000000e+00 -7.1799872838689327e-02 
2.8197661684804809e-03 0.0000000000000000e+00 -7.2273032388266906e-02 
-1.3219045371427041e-03 0.0000000000000000e+00 -8.4170377078173958e-02 
-8.7553163701151182e-04 0.0000000000000000e+00 -8.4499655655997485e-02 
3.1895476499721465e-03 0.0000000000000000e+00 -7.2800695929806869e-02 
-1.0710086833904647e-02 0.0000000000000000e+00 -7.2660071523818148e-02 
-1.4099701125188768e-02 0.0000000000000000e+00 -8.0242456046218769e-02 
-1.3626734349198116e-02 0.0000000000000000e+00 -8.0748006584788035e-02 
-1.0189613965356142e-02 0.0000000000000000e+00 -7.2558751283969491e-02 
4.5451858381478916e-05 0.0000000000000000e+00 -8.4210298202187867e-02 
2.3580470664542053e-03 0.0000000000000000e+00 -7.1410450554391325e-02 
3.3581112875121721e-02 0.0000000000000000e+00 -4.9895246143631999e-02 
4.0772234194974694e-02 0.0000000000000000e+00 -6.9624373197531397e-02 
4.0997451573661775e-02 0.0000000000000000e+00 -6.9568132438499991e-02 
3.3620310026176048e-02 0.0000000000000000e+00 -4.9879781074806229e-02 
1.8388401655997352e-02 0.0000000000000000e+00 -6.4997176375349464e-02 
2.0155013635057228e-02 0.0000000000000000e+00 -8.2966236349347328e-02 
2.0493168966140868e-02 0.0000000000000000e+00 -8.3086773349965629e-02 
1.8670158848421048e-02 0.0000000000000000e+00 -6.5218247597351772e-02 
4.0516648040376996e-02 0.0000000000000000e+00 -6.8871294712911951e-02 
2.8465218345127913e-02 0.0000000000000000e+00 -5.4240442708868720e-02 
1.3466212032410982e-02 0.0000000000000000e+00 -1.7515196519919236e-02 
3.4872299261894599e-02 0.0000000000000000e+00 -1.7454946756463745e-02 
3.4920937488100670e-02 0.0000000000000000e+00 -1.7459732310425941e-02 
1.3642834986929312e-02 0.0000000000000000e+00 -1.7495330201861184e-02 
2.6663593287706920e-02 0.0000000000000000e+00 -3.6921975703621962e-02 
4.6621621590954565e-02 0.0000000000000000e+00 -4.3061593375181194e-02 
4.6743613476587786e-02 0.0000000000000000e+00 -4.2979038677563017e-02 
2.6660700307919290e-02 0.0000000000000000e+00 -3.6903669116979024e-02 
3.4699910550689661e-02 0.0000000000000000e+00 -1.7649825762052922e-02 
1.6668352701770264e-02 0.0000000000000000e+00 -2.1977810743306382e-02 
0.0000000000000000e+00 0.0000000000000000e+00 0.0000000000000000e+00 
0.0000000000000000e+00 0.0000000000000000e+00 0.0000000000000000e+00 
0.0000000000000000e+00 0.0000000000000000e+00 0.0000000000000000e+00 
0.0000000000000000e+00 0.0000000000000000e+00 0.0000000000000000e+00 
5.4002154888449097e-03 0.0000000000000000e+00 -9.3582762273565941e-03 
1.5965483854280982e-02 0.0000000000000000e+00 -1.3982505305389810e-03 
1.5966265744400032e-02 0.0000000000000000e+00 -1.3032083834479003e-03 
5.4180018706883517e-03 0.0000000000000000e+00 -9.2169198981306572e-03 
0.0000000000000000e+00 0.0000000000000000e+00 0.0000000000000000e+00 
0.0000000000000000e+00 0.0000000000000000e+00 0.0000000000000000e+00 

VECTORS Forces0 double
4.1696656532033183e+00 -9.7746968328294515e-01 2.7261884956434446e-01 
3.9839794770976333e+01 4.2961500381903290e+00 1.3484683157146932e+01 
1.2251611465980899e+01 6.6673115196414976e+00 1.3844525342236814e+01 
9.8509311082342421e+00 -2.4145571613035464e+00 6.2113050275385173e-01 
-7.0863350509025596e+00 -1.2402406026208113e+00 -2.9926385390187056e+00 
-2.3363019058126117e+01 6.8479198180930331e-02 6.9759407170306451e+00 
-2.2933578916050234e+01 6.5685556007990989e-02 6.9238553218833454e+00 
-1.0913545895586858e+00 2.7613729154505462e+00 4.1787183418421714e+00 
0.0000000000000000e+00 0.0000000000000000e+00 0.0000000000000000e+00 
0.0000000000000000e+00 0.0000000000000000e+00 0.0000000000000000e+00 
0.0000000000000000e+00 0.0000000000000000e+00 0.0000000000000000e+00 
0.0000000000000000e+00 0.0000000000000000e+00 0.0000000000000000e+00 
0.0000000000000000e+00 0.0000000000000000e+00 0.0000000000000000e+00 
0.0000000000000000e+00 0.0000000000000000e+00 0.0000000000000000e+00 
0.0000000000000000e+00 0.0000000000000000e+00 0.0000000000000000e+00 
0.0000000000000000e+00 0.0000000000000000e+00 0.0000000000000000e+00 
0.0000000000000000e+00 0.0000000000000000e+00 0.0000000000000000e+00 
0.0000000000000000e+00 0.0000000000000000e+00 0.0000000000000000e+00 
3.7124924154275298e+01 -1.6252100309637060e-01 -4.9785776041461179e-02 
-1.7085862163439337e+01 9.6681093945604091e-02 -1.3522334502931372e+00 
-1.4591499597381146e+01 8.2850862914189319e-02 -1.2058523535960621e+00 
4.0253167141795345e+01 -1.7637000872242539e-01 6.4429716847648505e-02 
0.0000000000000000e+00 0.0000000000000000e+00 0.0000000000000000e+00 
0.0000000000000000e+00 0.0000000000000000e+00 0.0000000000000000e+00 
0.0000000000000000e+00 0.0000000000000000e+00 0.0000000000000000e+00 
0.0000000000000000e+00 0.0000000000000000e+00 0.0000000000000000e+00 
0.0000000000000000e+00 0.0000000000000000e+00 0.0000000000000000e+00 
0.0000000000000000e+00 0.0000000000000000e+00 0.0000000000000000e+00 
4.3740539656752048e+01 -1.5335004015404388e-01 6.5474171820611801e+01 
4.7679856565397314e+00 -2.3426558180314853e-02 7.6260409700898011e+00 
4.9891338765324784e+00 -2.4691308303760009e-02 8.0389522275965533e+00 
4.2811476793199361e+01 -1.5110128727169522e-01 6.4684886319848232e+01 
0.0000000000000000e+00 0.0000000000000000e+00 0.0000000000000000e+00 
0.0000000000000000e+00 0.0000000000000000e+00 0.0000000000000000e+00 
0.0000000000000000e+00 0.0000000000000000e+00 0.0000000000000000e+00 
0.0000000000000000e+00 0.0000000000000000e+00 0.0000000000000000e+00 
0.0000000000000000e+00 0.0000000000000000e+00 0.0000000000000000e+00 
0.0000000000000000e+00 0.0000000000000000e+00 0.0000000000000000e+00 
-3.3846727416725301e+01 -3.5413090449154271e-02 5.9606121443287286e+01 
-4.1951204586983531e-01 -4.5133994499445295e-04 7.8121221935702878e-01 
-2.5160253464789561e-01 -2.7038984668009610e-04 4.6769509141410692e-01 
-3.4168256837947929e+01 -3.5728160815309377e-02 6.0120216750851498e+01 
0.0000000000000000e+00 0.0000000000000000e+00 0.0000000000000000e+00 
0.0000000000000000e+00 0.0000000000000000e+00 0.0000000000000000e+00 
0.0000000000000000e+00 0.0000000000000000e+00 0.0000000000000000e+00 
0.0000000000000000e+00 0.0000000000000000e+00 0.0000000000000000e+00 
0.0000000000000000e+00 0.0000000000000000e+00 0.0000000000000000e+00 
0.0000000000000000e+00 0.0000000000000000e+00 0.0000000000000000e+00 
-3.3984829514514793e+01 -5.4445799389737605e-03 2.6097043680404397e+01 
3.3732441302887213e+00 3.5331757262707186e-04 -2.6047317187362822e+00 
3.3585767037916896e+00 3.5175809246493786e-04 -2.5923851721121869e+00 
-3.3931237959244903e+01 -5.4335116614603121e-03 2.6031733463814007e+01 
0.0000000000000000e+00 0.0000000000000000e+00 0.0000000000000000e+00 
0.0000000000000000e+00 0.0000000000000000e+00 0.0000000000000000e+00 
0.0000000000000000e+00 0.0000000000000000e+00 0.0000000000000000e+00 
0.0000000000000000e+00 0.0000000000000000e+00 0.0000000000000000e+00 
0.0000000000000000e+00 0.0000000000000000e+00 0.0000000000000000e+00 
0.0000000000000000e+00 0.0000000000000000e+00 0.0000000000000000e+00 

