# vtk DataFile Version 2.0

ASCII

DATASET UNSTRUCTURED_GRID

POINTS 58 double 

5.0000000000000003e-02  0.0000000000000000e+00  1.0000000000000000e+00
-5.0000000000000003e-02  0.0000000000000000e+00  1.0000000000000000e+00
-5.0000000000000003e-02  2.9999999999999999e-01  1.0000000000000000e+00
5.0000000000000003e-02  2.9999999999999999e-01  1.0000000000000000e+00
5.0000000000000003e-02  0.0000000000000000e+00  8.0000000000000004e-01
-5.0000000000000003e-02  0.0000000000000000e+00  8.0000000000000004e-01
-5.0000000000000003e-02  2.9999999999999999e-01  8.0000000000000004e-01
5.0000000000000003e-02  2.9999999999999999e-01  8.0000000000000004e-01
0.0000000000000000e+00  0.0000000000000000e+00  1.0000000000000000e+00
-5.0000000000000003e-02  1.4999999999999999e-01  1.0000000000000000e+00
0.0000000000000000e+00  2.9999999999999999e-01  1.0000000000000000e+00
5.0000000000000003e-02  1.4999999999999999e-01  1.0000000000000000e+00
5.0000000000000003e-02  0.0000000000000000e+00  9.0000000000000002e-01
-5.0000000000000003e-02  0.0000000000000000e+00  9.0000000000000002e-01
-5.0000000000000003e-02  2.9999999999999999e-01  9.0000000000000002e-01
5.0000000000000003e-02  2.9999999999999999e-01  9.0000000000000002e-01
-5.0000000000000003e-02  1.4999999999999999e-01  8.0000000000000004e-01
5.0000000000000003e-02  1.4999999999999999e-01  8.0000000000000004e-01
5.0000000000000003e-02  0.0000000000000000e+00  5.9999999999999998e-01
-5.0000000000000003e-02  0.0000000000000000e+00  5.9999999999999998e-01
-5.0000000000000003e-02  2.9999999999999999e-01  5.9999999999999998e-01
5.0000000000000003e-02  2.9999999999999999e-01  5.9999999999999998e-01
5.0000000000000003e-02  0.0000000000000000e+00  6.9999999999999996e-01
-5.0000000000000003e-02  0.0000000000000000e+00  6.9999999999999996e-01
-5.0000000000000003e-02  2.9999999999999999e-01  6.9999999999999996e-01
5.0000000000000003e-02  2.9999999999999999e-01  6.9999999999999996e-01
-5.0000000000000003e-02  1.4999999999999999e-01  5.9999999999999998e-01
5.0000000000000003e-02  1.4999999999999999e-01  5.9999999999999998e-01
5.0000000000000003e-02  0.0000000000000000e+00  4.0000000000000002e-01
-5.0000000000000003e-02  0.0000000000000000e+00  4.0000000000000002e-01
-5.0000000000000003e-02  2.9999999999999999e-01  4.0000000000000002e-01
5.0000000000000003e-02  2.9999999999999999e-01  4.0000000000000002e-01
5.0000000000000003e-02  0.0000000000000000e+00  5.0000000000000000e-01
-5.0000000000000003e-02  0.0000000000000000e+00  5.0000000000000000e-01
-5.0000000000000003e-02  2.9999999999999999e-01  5.0000000000000000e-01
5.0000000000000003e-02  2.9999999999999999e-01  5.0000000000000000e-01
-5.0000000000000003e-02  1.4999999999999999e-01  4.0000000000000002e-01
5.0000000000000003e-02  1.4999999999999999e-01  4.0000000000000002e-01
5.0000000000000003e-02  0.0000000000000000e+00  2.0000000000000001e-01
-5.0000000000000003e-02  0.0000000000000000e+00  2.0000000000000001e-01
-5.0000000000000003e-02  2.9999999999999999e-01  2.0000000000000001e-01
5.0000000000000003e-02  2.9999999999999999e-01  2.0000000000000001e-01
5.0000000000000003e-02  0.0000000000000000e+00  2.9999999999999999e-01
-5.0000000000000003e-02  0.0000000000000000e+00  2.9999999999999999e-01
-5.0000000000000003e-02  2.9999999999999999e-01  2.9999999999999999e-01
5.0000000000000003e-02  2.9999999999999999e-01  2.9999999999999999e-01
-5.0000000000000003e-02  1.4999999999999999e-01  2.0000000000000001e-01
5.0000000000000003e-02  1.4999999999999999e-01  2.0000000000000001e-01
5.0000000000000003e-02  0.0000000000000000e+00  0.0000000000000000e+00
-5.0000000000000003e-02  0.0000000000000000e+00  0.0000000000000000e+00
-5.0000000000000003e-02  2.9999999999999999e-01  0.0000000000000000e+00
5.0000000000000003e-02  2.9999999999999999e-01  0.0000000000000000e+00
5.0000000000000003e-02  0.0000000000000000e+00  1.0000000000000001e-01
-5.0000000000000003e-02  0.0000000000000000e+00  1.0000000000000001e-01
-5.0000000000000003e-02  2.9999999999999999e-01  1.0000000000000001e-01
5.0000000000000003e-02  2.9999999999999999e-01  1.0000000000000001e-01
-5.0000000000000003e-02  1.4999999999999999e-01  0.0000000000000000e+00
5.0000000000000003e-02  1.4999999999999999e-01  0.0000000000000000e+00

CELLS 0 0


CELL_TYPES 0


POINT_DATA 58

VECTORS VertexNormals double

0.0000000000000000e+00 0.0000000000000000e+00 0.0000000000000000e+00 
0.0000000000000000e+00 0.0000000000000000e+00 0.0000000000000000e+00 
0.0000000000000000e+00 0.0000000000000000e+00 0.0000000000000000e+00 
0.0000000000000000e+00 0.0000000000000000e+00 0.0000000000000000e+00 
0.0000000000000000e+00 0.0000000000000000e+00 0.0000000000000000e+00 
0.0000000000000000e+00 0.0000000000000000e+00 0.0000000000000000e+00 
0.0000000000000000e+00 0.0000000000000000e+00 0.0000000000000000e+00 
0.0000000000000000e+00 0.0000000000000000e+00 0.0000000000000000e+00 
0.0000000000000000e+00 0.0000000000000000e+00 0.0000000000000000e+00 
0.0000000000000000e+00 0.0000000000000000e+00 0.0000000000000000e+00 
0.0000000000000000e+00 0.0000000000000000e+00 0.0000000000000000e+00 
0.0000000000000000e+00 0.0000000000000000e+00 0.0000000000000000e+00 
0.0000000000000000e+00 0.0000000000000000e+00 0.0000000000000000e+00 
0.0000000000000000e+00 0.0000000000000000e+00 0.0000000000000000e+00 
0.0000000000000000e+00 0.0000000000000000e+00 0.0000000000000000e+00 
0.0000000000000000e+00 0.0000000000000000e+00 0.0000000000000000e+00 
0.0000000000000000e+00 0.0000000000000000e+00 0.0000000000000000e+00 
0.0000000000000000e+00 0.0000000000000000e+00 0.0000000000000000e+00 
0.0000000000000000e+00 0.0000000000000000e+00 0.0000000000000000e+00 
0.0000000000000000e+00 0.0000000000000000e+00 0.0000000000000000e+00 
0.0000000000000000e+00 0.0000000000000000e+00 0.0000000000000000e+00 
0.0000000000000000e+00 0.0000000000000000e+00 0.0000000000000000e+00 
0.0000000000000000e+00 0.0000000000000000e+00 0.0000000000000000e+00 
0.0000000000000000e+00 0.0000000000000000e+00 0.0000000000000000e+00 
0.0000000000000000e+00 0.0000000000000000e+00 0.0000000000000000e+00 
0.0000000000000000e+00 0.0000000000000000e+00 0.0000000000000000e+00 
0.0000000000000000e+00 0.0000000000000000e+00 0.0000000000000000e+00 
0.0000000000000000e+00 0.0000000000000000e+00 0.0000000000000000e+00 
0.0000000000000000e+00 0.0000000000000000e+00 0.0000000000000000e+00 
0.0000000000000000e+00 0.0000000000000000e+00 0.0000000000000000e+00 
0.0000000000000000e+00 0.0000000000000000e+00 0.0000000000000000e+00 
0.0000000000000000e+00 0.0000000000000000e+00 0.0000000000000000e+00 
0.0000000000000000e+00 0.0000000000000000e+00 0.0000000000000000e+00 
0.0000000000000000e+00 0.0000000000000000e+00 0.0000000000000000e+00 
0.0000000000000000e+00 0.0000000000000000e+00 0.0000000000000000e+00 
0.0000000000000000e+00 0.0000000000000000e+00 0.0000000000000000e+00 
0.0000000000000000e+00 0.0000000000000000e+00 0.0000000000000000e+00 
0.0000000000000000e+00 0.0000000000000000e+00 0.0000000000000000e+00 
0.0000000000000000e+00 0.0000000000000000e+00 0.0000000000000000e+00 
0.0000000000000000e+00 0.0000000000000000e+00 0.0000000000000000e+00 
0.0000000000000000e+00 0.0000000000000000e+00 0.0000000000000000e+00 
0.0000000000000000e+00 0.0000000000000000e+00 0.0000000000000000e+00 
0.0000000000000000e+00 0.0000000000000000e+00 0.0000000000000000e+00 
0.0000000000000000e+00 0.0000000000000000e+00 0.0000000000000000e+00 
0.0000000000000000e+00 0.0000000000000000e+00 0.0000000000000000e+00 
0.0000000000000000e+00 0.0000000000000000e+00 0.0000000000000000e+00 
0.0000000000000000e+00 0.0000000000000000e+00 0.0000000000000000e+00 
0.0000000000000000e+00 0.0000000000000000e+00 0.0000000000000000e+00 
0.0000000000000000e+00 0.0000000000000000e+00 0.0000000000000000e+00 
0.0000000000000000e+00 0.0000000000000000e+00 0.0000000000000000e+00 
0.0000000000000000e+00 0.0000000000000000e+00 0.0000000000000000e+00 
0.0000000000000000e+00 0.0000000000000000e+00 0.0000000000000000e+00 
0.0000000000000000e+00 0.0000000000000000e+00 0.0000000000000000e+00 
0.0000000000000000e+00 0.0000000000000000e+00 0.0000000000000000e+00 
0.0000000000000000e+00 0.0000000000000000e+00 0.0000000000000000e+00 
0.0000000000000000e+00 0.0000000000000000e+00 0.0000000000000000e+00 
0.0000000000000000e+00 0.0000000000000000e+00 0.0000000000000000e+00 
0.0000000000000000e+00 0.0000000000000000e+00 0.0000000000000000e+00 

VECTORS DisplacementDeltas0 double
0.0000000000000000e+00 0.0000000000000000e+00 0.0000000000000000e+00 
-2.0915584154355238e-02 0.0000000000000000e+00 -7.3462074539039635e-02 
-2.4767400159500491e-02 0.0000000000000000e+00 -7.2666450336586030e-02 
-2.5122547823282201e-02 0.0000000000000000e+00 -7.1756454627372013e-02 
-1.8996030683752926e-02 0.0000000000000000e+00 -7.2853948887160513e-02 
-2.1704142630511847e-02 0.0000000000000000e+00 -7.5935212756040371e-02 
-2.2312331715863776e-02 0.0000000000000000e+00 -7.5720233004477444e-02 
-1.9506551300937897e-02 0.0000000000000000e+00 -7.2049800276929366e-02 
-2.1870721958487160e-02 0.0000000000000000e+00 -7.3845069549836051e-02 
-2.4431003809787799e-02 0.0000000000000000e+00 -7.3942582650868172e-02 
-2.4880301201454957e-02 0.0000000000000000e+00 -7.2246877255750297e-02 
-2.3899063656697167e-02 0.0000000000000000e+00 -7.2545736225650415e-02 
-2.1745408925169615e-02 0.0000000000000000e+00 -7.3674049941119812e-02 
-2.2504673836701822e-02 0.0000000000000000e+00 -7.4363556666948383e-02 
-2.3989151712744072e-02 0.0000000000000000e+00 -7.3674475867824718e-02 
-2.2983133566875702e-02 0.0000000000000000e+00 -7.2057748502343477e-02 
-2.0947722924714668e-02 0.0000000000000000e+00 -7.6134347064156060e-02 
-1.9323623773441545e-02 0.0000000000000000e+00 -7.3113684145192315e-02 
-2.5834845654156835e-03 0.0000000000000000e+00 -7.3605907152414191e-02 
-3.5360615605855017e-03 0.0000000000000000e+00 -8.3005455942899958e-02 
-3.0305272159131535e-03 0.0000000000000000e+00 -8.3611881534528060e-02 
-2.6885610730180143e-03 0.0000000000000000e+00 -7.3848615154386038e-02 
-1.2985672170348239e-02 0.0000000000000000e+00 -7.2901660575022398e-02 
-1.5761003327113943e-02 0.0000000000000000e+00 -7.9109535088143890e-02 
-1.5763962040093116e-02 0.0000000000000000e+00 -7.9669391779804200e-02 
-1.2643700273657493e-02 0.0000000000000000e+00 -7.2747865285486935e-02 
-4.2296156670623419e-03 0.0000000000000000e+00 -8.3263013470958852e-02 
-1.6759248517819736e-04 0.0000000000000000e+00 -7.3155923869550943e-02 
3.6759055618360806e-02 0.0000000000000000e+00 -5.3870336418413128e-02 
3.2732355291591214e-02 0.0000000000000000e+00 -7.4203797605866900e-02 
3.2882434483415102e-02 0.0000000000000000e+00 -7.4302246570153788e-02 
3.6762190225073654e-02 0.0000000000000000e+00 -5.3998650695201114e-02 
1.6440406809226316e-02 0.0000000000000000e+00 -6.7541873994062501e-02 
1.4003178932227661e-02 0.0000000000000000e+00 -8.3597107789337377e-02 
1.4308973835308436e-02 0.0000000000000000e+00 -8.3927127998289025e-02 
1.6688627667790890e-02 0.0000000000000000e+00 -6.7874611581381639e-02 
3.1384698798007482e-02 0.0000000000000000e+00 -7.5508650666213303e-02 
2.5658886720998461e-02 0.0000000000000000e+00 -6.0426944905997509e-02 
1.3962022726909107e-02 0.0000000000000000e+00 -1.0459094966471159e-02 
3.3896448869164986e-02 0.0000000000000000e+00 -2.1488913333814297e-02 
3.3958062830356579e-02 0.0000000000000000e+00 -2.1417332312387821e-02 
1.4002106453488844e-02 0.0000000000000000e+00 -1.0472073250586805e-02 
2.6661869260711277e-02 0.0000000000000000e+00 -3.7551457313098897e-02 
4.1524373142757587e-02 0.0000000000000000e+00 -5.0878744892343265e-02 
4.1660178490630861e-02 0.0000000000000000e+00 -5.0878003425147464e-02 
2.6710466416845061e-02 0.0000000000000000e+00 -3.7546114989977869e-02 
3.5607969214077322e-02 0.0000000000000000e+00 -2.3459576745750332e-02 
1.8175274663888068e-02 0.0000000000000000e+00 -2.1875090174694863e-02 
0.0000000000000000e+00 0.0000000000000000e+00 0.0000000000000000e+00 
0.0000000000000000e+00 0.0000000000000000e+00 0.0000000000000000e+00 
0.0000000000000000e+00 0.0000000000000000e+00 0.0000000000000000e+00 
0.0000000000000000e+00 0.0000000000000000e+00 0.0000000000000000e+00 
6.3308002886492045e-03 0.0000000000000000e+00 -6.2758688113521699e-03 
1.8233298351406701e-02 0.0000000000000000e+00 -3.0933350595322862e-03 
1.8318066343687132e-02 0.0000000000000000e+00 -3.0593321268558241e-03 
6.4134313856832968e-03 0.0000000000000000e+00 -6.2383820123097494e-03 
0.0000000000000000e+00 0.0000000000000000e+00 0.0000000000000000e+00 
0.0000000000000000e+00 0.0000000000000000e+00 0.0000000000000000e+00 

VECTORS Forces0 double
5.6155442074748061e+00 -1.3300184585735886e+00 2.2603192378278641e-01 
4.6734907190181126e+01 5.4818576654415754e+00 1.4158595879682471e+01 
1.5044295241971328e+01 7.8078151649962697e+00 1.4991050525563885e+01 
1.0736318259079454e+01 -3.0286778120037026e+00 3.3331167346755336e-01 
-6.6767217001949017e+00 -1.1576508775777687e+00 -2.6759846833132821e+00 
-2.5532401815729049e+01 -3.6452280266025339e-03 9.2989491214947222e+00 
-2.5635885811904146e+01 -7.7482286337868037e-03 9.5533619921629800e+00 
-9.4796011711016703e-01 4.4197636525059876e+00 6.9463519352580381e+00 
0.0000000000000000e+00 0.0000000000000000e+00 0.0000000000000000e+00 
0.0000000000000000e+00 0.0000000000000000e+00 0.0000000000000000e+00 
0.0000000000000000e+00 0.0000000000000000e+00 0.0000000000000000e+00 
0.0000000000000000e+00 0.0000000000000000e+00 0.0000000000000000e+00 
0.0000000000000000e+00 0.0000000000000000e+00 0.0000000000000000e+00 
0.0000000000000000e+00 0.0000000000000000e+00 0.0000000000000000e+00 
0.0000000000000000e+00 0.0000000000000000e+00 0.0000000000000000e+00 
0.0000000000000000e+00 0.0000000000000000e+00 0.0000000000000000e+00 
0.0000000000000000e+00 0.0000000000000000e+00 0.0000000000000000e+00 
0.0000000000000000e+00 0.0000000000000000e+00 0.0000000000000000e+00 
2.0084004742683526e+01 -8.1692728483444027e-02 -2.7199325312482316e+00 
-2.3212538557372010e+01 1.3536510389289946e-01 1.0870757525909742e+00 
-2.0443404957790264e+01 1.1932763454198179e-01 9.1228201736783088e-01 
2.2505367844558958e+01 -9.1291024394594897e-02 -3.0136565267069355e+00 
0.0000000000000000e+00 0.0000000000000000e+00 0.0000000000000000e+00 
0.0000000000000000e+00 0.0000000000000000e+00 0.0000000000000000e+00 
0.0000000000000000e+00 0.0000000000000000e+00 0.0000000000000000e+00 
0.0000000000000000e+00 0.0000000000000000e+00 0.0000000000000000e+00 
0.0000000000000000e+00 0.0000000000000000e+00 0.0000000000000000e+00 
0.0000000000000000e+00 0.0000000000000000e+00 0.0000000000000000e+00 
8.5819950082140949e+01 -2.2397197616755044e-01 8.7162391717849388e+01 
5.5319204521140826e+00 -2.2943117419626284e-02 6.1533380153201689e+00 
5.9713273435883201e+00 -2.4895844925546497e-02 6.6856489682037887e+00 
8.4444833337271348e+01 -2.2135747512794141e-01 8.6437845434344993e+01 
0.0000000000000000e+00 0.0000000000000000e+00 0.0000000000000000e+00 
0.0000000000000000e+00 0.0000000000000000e+00 0.0000000000000000e+00 
0.0000000000000000e+00 0.0000000000000000e+00 0.0000000000000000e+00 
0.0000000000000000e+00 0.0000000000000000e+00 0.0000000000000000e+00 
0.0000000000000000e+00 0.0000000000000000e+00 0.0000000000000000e+00 
0.0000000000000000e+00 0.0000000000000000e+00 0.0000000000000000e+00 
-3.7442347131323821e+01 -5.9277396150304966e-02 1.1225274619538321e+02 
-9.4544997447095425e-01 -1.6510670473326851e-03 2.7787822183352091e+00 
-8.2238185419154575e-01 -1.4331185956379373e-03 2.4112939609655193e+00 
-3.7618032963974748e+01 -5.9488164259870878e-02 1.1264255590321616e+02 
0.0000000000000000e+00 0.0000000000000000e+00 0.0000000000000000e+00 
0.0000000000000000e+00 0.0000000000000000e+00 0.0000000000000000e+00 
0.0000000000000000e+00 0.0000000000000000e+00 0.0000000000000000e+00 
0.0000000000000000e+00 0.0000000000000000e+00 0.0000000000000000e+00 
0.0000000000000000e+00 0.0000000000000000e+00 0.0000000000000000e+00 
0.0000000000000000e+00 0.0000000000000000e+00 0.0000000000000000e+00 
-5.0430236395490297e+01 -7.4514303732132834e-03 5.0414620638823962e+01 
3.3821434047728514e+00 3.9170362396177784e-04 -3.4612690524798668e+00 
3.3708492533176377e+00 3.9031989107248324e-04 -3.4484728006527594e+00 
-4.9875063641584333e+01 -7.3649461046401453e-03 4.9822482592537298e+01 
0.0000000000000000e+00 0.0000000000000000e+00 0.0000000000000000e+00 
0.0000000000000000e+00 0.0000000000000000e+00 0.0000000000000000e+00 
0.0000000000000000e+00 0.0000000000000000e+00 0.0000000000000000e+00 
0.0000000000000000e+00 0.0000000000000000e+00 0.0000000000000000e+00 
0.0000000000000000e+00 0.0000000000000000e+00 0.0000000000000000e+00 
0.0000000000000000e+00 0.0000000000000000e+00 0.0000000000000000e+00 

