# vtk DataFile Version 2.0

ASCII

DATASET UNSTRUCTURED_GRID

POINTS 58 float 

5.0000000000000003e-02  0.0000000000000000e+00  1.0000000000000000e+00
-5.0000000000000003e-02  0.0000000000000000e+00  1.0000000000000000e+00
-5.0000000000000003e-02  2.9999999999999999e-01  1.0000000000000000e+00
5.0000000000000003e-02  2.9999999999999999e-01  1.0000000000000000e+00
5.0000000000000003e-02  0.0000000000000000e+00  8.0000000000000004e-01
-5.0000000000000003e-02  0.0000000000000000e+00  8.0000000000000004e-01
-5.0000000000000003e-02  2.9999999999999999e-01  8.0000000000000004e-01
5.0000000000000003e-02  2.9999999999999999e-01  8.0000000000000004e-01
0.0000000000000000e+00  0.0000000000000000e+00  1.0000000000000000e+00
-5.0000000000000003e-02  1.4999999999999999e-01  1.0000000000000000e+00
0.0000000000000000e+00  2.9999999999999999e-01  1.0000000000000000e+00
5.0000000000000003e-02  1.4999999999999999e-01  1.0000000000000000e+00
5.0000000000000003e-02  0.0000000000000000e+00  9.0000000000000002e-01
-5.0000000000000003e-02  0.0000000000000000e+00  9.0000000000000002e-01
-5.0000000000000003e-02  2.9999999999999999e-01  9.0000000000000002e-01
5.0000000000000003e-02  2.9999999999999999e-01  9.0000000000000002e-01
-5.0000000000000003e-02  1.4999999999999999e-01  8.0000000000000004e-01
5.0000000000000003e-02  1.4999999999999999e-01  8.0000000000000004e-01
5.0000000000000003e-02  0.0000000000000000e+00  5.9999999999999998e-01
-5.0000000000000003e-02  0.0000000000000000e+00  5.9999999999999998e-01
-5.0000000000000003e-02  2.9999999999999999e-01  5.9999999999999998e-01
5.0000000000000003e-02  2.9999999999999999e-01  5.9999999999999998e-01
5.0000000000000003e-02  0.0000000000000000e+00  6.9999999999999996e-01
-5.0000000000000003e-02  0.0000000000000000e+00  6.9999999999999996e-01
-5.0000000000000003e-02  2.9999999999999999e-01  6.9999999999999996e-01
5.0000000000000003e-02  2.9999999999999999e-01  6.9999999999999996e-01
-5.0000000000000003e-02  1.4999999999999999e-01  5.9999999999999998e-01
5.0000000000000003e-02  1.4999999999999999e-01  5.9999999999999998e-01
5.0000000000000003e-02  0.0000000000000000e+00  4.0000000000000002e-01
-5.0000000000000003e-02  0.0000000000000000e+00  4.0000000000000002e-01
-5.0000000000000003e-02  2.9999999999999999e-01  4.0000000000000002e-01
5.0000000000000003e-02  2.9999999999999999e-01  4.0000000000000002e-01
5.0000000000000003e-02  0.0000000000000000e+00  5.0000000000000000e-01
-5.0000000000000003e-02  0.0000000000000000e+00  5.0000000000000000e-01
-5.0000000000000003e-02  2.9999999999999999e-01  5.0000000000000000e-01
5.0000000000000003e-02  2.9999999999999999e-01  5.0000000000000000e-01
-5.0000000000000003e-02  1.4999999999999999e-01  4.0000000000000002e-01
5.0000000000000003e-02  1.4999999999999999e-01  4.0000000000000002e-01
5.0000000000000003e-02  0.0000000000000000e+00  2.0000000000000001e-01
-5.0000000000000003e-02  0.0000000000000000e+00  2.0000000000000001e-01
-5.0000000000000003e-02  2.9999999999999999e-01  2.0000000000000001e-01
5.0000000000000003e-02  2.9999999999999999e-01  2.0000000000000001e-01
5.0000000000000003e-02  0.0000000000000000e+00  2.9999999999999999e-01
-5.0000000000000003e-02  0.0000000000000000e+00  2.9999999999999999e-01
-5.0000000000000003e-02  2.9999999999999999e-01  2.9999999999999999e-01
5.0000000000000003e-02  2.9999999999999999e-01  2.9999999999999999e-01
-5.0000000000000003e-02  1.4999999999999999e-01  2.0000000000000001e-01
5.0000000000000003e-02  1.4999999999999999e-01  2.0000000000000001e-01
5.0000000000000003e-02  0.0000000000000000e+00  0.0000000000000000e+00
-5.0000000000000003e-02  0.0000000000000000e+00  0.0000000000000000e+00
-5.0000000000000003e-02  2.9999999999999999e-01  0.0000000000000000e+00
5.0000000000000003e-02  2.9999999999999999e-01  0.0000000000000000e+00
5.0000000000000003e-02  0.0000000000000000e+00  1.0000000000000001e-01
-5.0000000000000003e-02  0.0000000000000000e+00  1.0000000000000001e-01
-5.0000000000000003e-02  2.9999999999999999e-01  1.0000000000000001e-01
5.0000000000000003e-02  2.9999999999999999e-01  1.0000000000000001e-01
-5.0000000000000003e-02  1.4999999999999999e-01  0.0000000000000000e+00
5.0000000000000003e-02  1.4999999999999999e-01  0.0000000000000000e+00

CELLS 0 0


CELL_TYPES 0


POINT_DATA 58

VECTORS VertexNormals float

0.0000000000000000e+00 0.0000000000000000e+00 0.0000000000000000e+00 
0.0000000000000000e+00 0.0000000000000000e+00 0.0000000000000000e+00 
0.0000000000000000e+00 0.0000000000000000e+00 0.0000000000000000e+00 
0.0000000000000000e+00 0.0000000000000000e+00 0.0000000000000000e+00 
0.0000000000000000e+00 0.0000000000000000e+00 0.0000000000000000e+00 
0.0000000000000000e+00 0.0000000000000000e+00 0.0000000000000000e+00 
0.0000000000000000e+00 0.0000000000000000e+00 0.0000000000000000e+00 
0.0000000000000000e+00 0.0000000000000000e+00 0.0000000000000000e+00 
0.0000000000000000e+00 0.0000000000000000e+00 0.0000000000000000e+00 
0.0000000000000000e+00 0.0000000000000000e+00 0.0000000000000000e+00 
0.0000000000000000e+00 0.0000000000000000e+00 0.0000000000000000e+00 
0.0000000000000000e+00 0.0000000000000000e+00 0.0000000000000000e+00 
0.0000000000000000e+00 0.0000000000000000e+00 0.0000000000000000e+00 
0.0000000000000000e+00 0.0000000000000000e+00 0.0000000000000000e+00 
0.0000000000000000e+00 0.0000000000000000e+00 0.0000000000000000e+00 
0.0000000000000000e+00 0.0000000000000000e+00 0.0000000000000000e+00 
0.0000000000000000e+00 0.0000000000000000e+00 0.0000000000000000e+00 
0.0000000000000000e+00 0.0000000000000000e+00 0.0000000000000000e+00 
0.0000000000000000e+00 0.0000000000000000e+00 0.0000000000000000e+00 
0.0000000000000000e+00 0.0000000000000000e+00 0.0000000000000000e+00 
0.0000000000000000e+00 0.0000000000000000e+00 0.0000000000000000e+00 
0.0000000000000000e+00 0.0000000000000000e+00 0.0000000000000000e+00 
0.0000000000000000e+00 0.0000000000000000e+00 0.0000000000000000e+00 
0.0000000000000000e+00 0.0000000000000000e+00 0.0000000000000000e+00 
0.0000000000000000e+00 0.0000000000000000e+00 0.0000000000000000e+00 
0.0000000000000000e+00 0.0000000000000000e+00 0.0000000000000000e+00 
0.0000000000000000e+00 0.0000000000000000e+00 0.0000000000000000e+00 
0.0000000000000000e+00 0.0000000000000000e+00 0.0000000000000000e+00 
0.0000000000000000e+00 0.0000000000000000e+00 0.0000000000000000e+00 
0.0000000000000000e+00 0.0000000000000000e+00 0.0000000000000000e+00 
0.0000000000000000e+00 0.0000000000000000e+00 0.0000000000000000e+00 
0.0000000000000000e+00 0.0000000000000000e+00 0.0000000000000000e+00 
0.0000000000000000e+00 0.0000000000000000e+00 0.0000000000000000e+00 
0.0000000000000000e+00 0.0000000000000000e+00 0.0000000000000000e+00 
0.0000000000000000e+00 0.0000000000000000e+00 0.0000000000000000e+00 
0.0000000000000000e+00 0.0000000000000000e+00 0.0000000000000000e+00 
0.0000000000000000e+00 0.0000000000000000e+00 0.0000000000000000e+00 
0.0000000000000000e+00 0.0000000000000000e+00 0.0000000000000000e+00 
0.0000000000000000e+00 0.0000000000000000e+00 0.0000000000000000e+00 
0.0000000000000000e+00 0.0000000000000000e+00 0.0000000000000000e+00 
0.0000000000000000e+00 0.0000000000000000e+00 0.0000000000000000e+00 
0.0000000000000000e+00 0.0000000000000000e+00 0.0000000000000000e+00 
0.0000000000000000e+00 0.0000000000000000e+00 0.0000000000000000e+00 
0.0000000000000000e+00 0.0000000000000000e+00 0.0000000000000000e+00 
0.0000000000000000e+00 0.0000000000000000e+00 0.0000000000000000e+00 
0.0000000000000000e+00 0.0000000000000000e+00 0.0000000000000000e+00 
0.0000000000000000e+00 0.0000000000000000e+00 0.0000000000000000e+00 
0.0000000000000000e+00 0.0000000000000000e+00 0.0000000000000000e+00 
0.0000000000000000e+00 0.0000000000000000e+00 0.0000000000000000e+00 
0.0000000000000000e+00 0.0000000000000000e+00 0.0000000000000000e+00 
0.0000000000000000e+00 0.0000000000000000e+00 0.0000000000000000e+00 
0.0000000000000000e+00 0.0000000000000000e+00 0.0000000000000000e+00 
0.0000000000000000e+00 0.0000000000000000e+00 0.0000000000000000e+00 
0.0000000000000000e+00 0.0000000000000000e+00 0.0000000000000000e+00 
0.0000000000000000e+00 0.0000000000000000e+00 0.0000000000000000e+00 
0.0000000000000000e+00 0.0000000000000000e+00 0.0000000000000000e+00 
0.0000000000000000e+00 0.0000000000000000e+00 0.0000000000000000e+00 
0.0000000000000000e+00 0.0000000000000000e+00 0.0000000000000000e+00 

VECTORS DisplacementDeltas0 float
-1.7480437802379976e-318 0.0000000000000000e+00 0.0000000000000000e+00 
2.1674011313562946e-02 0.0000000000000000e+00 -7.5168360498583150e-02 
2.2493749972791577e-02 0.0000000000000000e+00 -7.5407204831471134e-02 
8.1445573366849267e-03 0.0000000000000000e+00 -6.8026113842838826e-02 
2.1359405555814170e-02 0.0000000000000000e+00 -3.6080399114419535e-02 
3.5343641885374810e-02 0.0000000000000000e+00 -4.1476364841773368e-02 
3.7088914590073241e-02 0.0000000000000000e+00 -4.0772091841449289e-02 
2.2506297761232974e-02 0.0000000000000000e+00 -3.5748434877134964e-02 
1.4036592418042781e-02 0.0000000000000000e+00 -7.1879835775186196e-02 
2.1010214137549887e-02 0.0000000000000000e+00 -7.5419131647471702e-02 
1.5300618016939466e-02 0.0000000000000000e+00 -7.1786735458514772e-02 
6.0116062534431858e-03 0.0000000000000000e+00 -6.7863042192731010e-02 
1.3921391931688565e-02 0.0000000000000000e+00 -5.2127340529395383e-02 
2.8377025456000737e-02 0.0000000000000000e+00 -5.9254942514589994e-02 
3.0497438882215483e-02 0.0000000000000000e+00 -5.9317623880960811e-02 
1.6096610149641200e-02 0.0000000000000000e+00 -5.2118366270467051e-02 
3.5738841902414831e-02 0.0000000000000000e+00 -4.1086234064972707e-02 
2.1652755512076641e-02 0.0000000000000000e+00 -3.6155201517455854e-02 
1.7255734966663785e-02 0.0000000000000000e+00 -7.2544599884877695e-03 
2.9382795088987269e-02 0.0000000000000000e+00 -6.4697793285544911e-04 
2.9307352045381097e-02 0.0000000000000000e+00 -4.8816142884967190e-04 
1.7347858782114221e-02 0.0000000000000000e+00 -7.3286546918801239e-03 
2.2301601043696662e-02 0.0000000000000000e+00 -2.0912389576094148e-02 
3.7427253349734568e-02 0.0000000000000000e+00 -2.0373201302116766e-02 
3.7832047283638967e-02 0.0000000000000000e+00 -1.9662795588756984e-02 
2.2778284507095521e-02 0.0000000000000000e+00 -2.0876701386822422e-02 
2.9345042891005261e-02 0.0000000000000000e+00 -1.0441835251646832e-03 
1.7277297910556173e-02 0.0000000000000000e+00 -7.4487447047857499e-03 
5.3365213540175092e-04 0.0000000000000000e+00 3.6330735768961096e-03 
2.8427803297875563e-03 0.0000000000000000e+00 9.8260404053258088e-03 
2.8297624519142981e-03 0.0000000000000000e+00 9.7776460345780775e-03 
5.8773634947521759e-04 0.0000000000000000e+00 3.6164159598784584e-03 
8.6427056217405988e-03 0.0000000000000000e+00 6.6189990631567363e-05 
1.5086854323202248e-02 0.0000000000000000e+00 9.2251571802417689e-03 
1.5108019122727571e-02 0.0000000000000000e+00 9.1890306227156299e-03 
8.6769854668725058e-03 0.0000000000000000e+00 4.2480511812653795e-05 
2.6612338747315899e-03 0.0000000000000000e+00 9.8717589211350654e-03 
4.8333705013786340e-04 0.0000000000000000e+00 3.6436018773657233e-03 
-3.3057144415417515e-03 0.0000000000000000e+00 3.9826513061227455e-03 
-2.1642846076253362e-03 0.0000000000000000e+00 3.2538149491674654e-03 
-2.1045618278604907e-03 0.0000000000000000e+00 3.2762429414132841e-03 
-3.2000952009623514e-03 0.0000000000000000e+00 3.9610708038581091e-03 
-3.0486217120354858e-03 0.0000000000000000e+00 4.4226283474633372e-03 
-2.0671875758444640e-03 0.0000000000000000e+00 6.3841321943834250e-03 
-2.0857067312526180e-03 0.0000000000000000e+00 6.4039600501312813e-03 
-3.0877890362181921e-03 0.0000000000000000e+00 4.3289086139117611e-03 
-2.3182763360994393e-03 0.0000000000000000e+00 3.3798274604316201e-03 
-3.3541233022270486e-03 0.0000000000000000e+00 3.9634430519064640e-03 
0.0000000000000000e+00 0.0000000000000000e+00 0.0000000000000000e+00 
0.0000000000000000e+00 0.0000000000000000e+00 0.0000000000000000e+00 
0.0000000000000000e+00 0.0000000000000000e+00 0.0000000000000000e+00 
0.0000000000000000e+00 0.0000000000000000e+00 0.0000000000000000e+00 
-1.5281785056791501e-03 0.0000000000000000e+00 2.3287204310652424e-03 
-5.7672618973034478e-04 0.0000000000000000e+00 1.2335663381677531e-03 
-5.7791481499467018e-04 0.0000000000000000e+00 1.1309445258398030e-03 
-1.5625274155280475e-03 0.0000000000000000e+00 2.3625693910391673e-03 
0.0000000000000000e+00 0.0000000000000000e+00 0.0000000000000000e+00 
0.0000000000000000e+00 0.0000000000000000e+00 0.0000000000000000e+00 

VECTORS Forces0 float
3.8973518163204435e-02 -6.7291220667411056e-01 -5.4035037578025535e-01 
6.0584791106242113e+00 1.4146808139022744e+00 4.8079744091392573e+00 
-3.9169601031462714e-01 4.2109969734479658e-01 -5.4814081795722458e-01 
-5.0857443592539564e-01 9.2468682395968305e+00 7.4725079794743898e+00 
3.0888172917083319e+00 -4.9325218263778364e-01 -3.8778308399082684e-01 
8.1169625218213248e-01 -3.2395253348220815e-01 1.1354141515497677e+01 
6.8899171911586155e-01 -3.1310862623094932e-01 1.0942752144323972e+01 
-9.5480924783514642e-01 5.3619720311070607e-01 3.2620382164416699e+00 
0.0000000000000000e+00 0.0000000000000000e+00 0.0000000000000000e+00 
0.0000000000000000e+00 0.0000000000000000e+00 0.0000000000000000e+00 
0.0000000000000000e+00 0.0000000000000000e+00 0.0000000000000000e+00 
0.0000000000000000e+00 0.0000000000000000e+00 0.0000000000000000e+00 
0.0000000000000000e+00 0.0000000000000000e+00 0.0000000000000000e+00 
0.0000000000000000e+00 0.0000000000000000e+00 0.0000000000000000e+00 
0.0000000000000000e+00 0.0000000000000000e+00 0.0000000000000000e+00 
0.0000000000000000e+00 0.0000000000000000e+00 0.0000000000000000e+00 
0.0000000000000000e+00 0.0000000000000000e+00 0.0000000000000000e+00 
0.0000000000000000e+00 0.0000000000000000e+00 0.0000000000000000e+00 
-1.4244078525854527e+00 -1.0275163374542056e-02 1.9892578694690295e+00 
3.6844217958500902e-01 3.7470601883716464e-03 -5.2492123139290336e-01 
4.0059509588818770e-01 4.0101484976866964e-03 -5.5675157150735077e-01 
1.1422817919925634e+00 7.9506246176686141e-03 -1.5539173868657314e+00 
0.0000000000000000e+00 0.0000000000000000e+00 0.0000000000000000e+00 
0.0000000000000000e+00 0.0000000000000000e+00 0.0000000000000000e+00 
0.0000000000000000e+00 0.0000000000000000e+00 0.0000000000000000e+00 
0.0000000000000000e+00 0.0000000000000000e+00 0.0000000000000000e+00 
0.0000000000000000e+00 0.0000000000000000e+00 0.0000000000000000e+00 
0.0000000000000000e+00 0.0000000000000000e+00 0.0000000000000000e+00 
4.7881425702562913e-01 -2.6578315073786318e-04 -1.0305471342842977e-01 
6.9652742653009643e+00 1.1174326209265010e-03 -1.8974189805555421e+00 
7.0503932208806583e+00 1.1323516596289105e-03 -1.9156515964818599e+00 
5.2183481950234023e-01 -2.8983778092407127e-04 -1.1276559183545701e-01 
0.0000000000000000e+00 0.0000000000000000e+00 0.0000000000000000e+00 
0.0000000000000000e+00 0.0000000000000000e+00 0.0000000000000000e+00 
0.0000000000000000e+00 0.0000000000000000e+00 0.0000000000000000e+00 
0.0000000000000000e+00 0.0000000000000000e+00 0.0000000000000000e+00 
0.0000000000000000e+00 0.0000000000000000e+00 0.0000000000000000e+00 
0.0000000000000000e+00 0.0000000000000000e+00 0.0000000000000000e+00 
-5.1897161583256735e-01 1.0214355750061246e-05 -1.2280099663136613e-02 
3.4800942916136131e+00 2.3830385038746871e-04 2.2007693719032682e-02 
3.4720775860960624e+00 2.3773550587711495e-04 2.1868438060773786e-02 
-4.9616205353831150e-01 9.7753493830632119e-06 -1.1668212581339181e-02 
0.0000000000000000e+00 0.0000000000000000e+00 0.0000000000000000e+00 
0.0000000000000000e+00 0.0000000000000000e+00 0.0000000000000000e+00 
0.0000000000000000e+00 0.0000000000000000e+00 0.0000000000000000e+00 
0.0000000000000000e+00 0.0000000000000000e+00 0.0000000000000000e+00 
0.0000000000000000e+00 0.0000000000000000e+00 0.0000000000000000e+00 
0.0000000000000000e+00 0.0000000000000000e+00 0.0000000000000000e+00 
-1.7647893080401586e-01 -1.8483571348423648e-06 -6.7155015703639969e-03 
1.6985146863613312e+00 4.5204247172935585e-05 3.9229806352782164e-02 
1.6892967699084012e+00 4.4962421250884931e-05 3.9145816252483402e-02 
-1.5513096074469893e-01 -1.6248541405111827e-06 -5.9077113111131972e-03 
0.0000000000000000e+00 0.0000000000000000e+00 0.0000000000000000e+00 
0.0000000000000000e+00 0.0000000000000000e+00 0.0000000000000000e+00 
0.0000000000000000e+00 0.0000000000000000e+00 0.0000000000000000e+00 
0.0000000000000000e+00 0.0000000000000000e+00 0.0000000000000000e+00 
0.0000000000000000e+00 0.0000000000000000e+00 0.0000000000000000e+00 
0.0000000000000000e+00 0.0000000000000000e+00 0.0000000000000000e+00 

