# vtk DataFile Version 2.0

ASCII

DATASET UNSTRUCTURED_GRID

POINTS 24 float 

-5.0000000000000003e-02  0.0000000000000000e+00  0.0000000000000000e+00
-5.0000000000000003e-02  0.0000000000000000e+00  1.9999999999955789e-01
-5.0000000000000003e-02  2.9999999999999999e-01  1.9999999999955789e-01
-5.0000000000000003e-02  2.9999999999999999e-01  0.0000000000000000e+00
-5.0000000000000003e-02  0.0000000000000000e+00  3.9999999999897490e-01
-5.0000000000000003e-02  2.9999999999999999e-01  3.9999999999897490e-01
-5.0000000000000003e-02  0.0000000000000000e+00  5.9999999999894682e-01
-5.0000000000000003e-02  2.9999999999999999e-01  5.9999999999894682e-01
-5.0000000000000003e-02  0.0000000000000000e+00  7.9999999999947335e-01
-5.0000000000000003e-02  2.9999999999999999e-01  7.9999999999947335e-01
-5.0000000000000003e-02  0.0000000000000000e+00  1.0000000000000000e+00
-5.0000000000000003e-02  2.9999999999999999e-01  1.0000000000000000e+00
5.0000000000000003e-02  0.0000000000000000e+00  1.0000000000000000e+00
5.0000000000000003e-02  2.9999999999999999e-01  1.0000000000000000e+00
5.0000000000000003e-02  0.0000000000000000e+00  7.9999999999999982e-01
5.0000000000000003e-02  2.9999999999999999e-01  7.9999999999999982e-01
5.0000000000000003e-02  0.0000000000000000e+00  6.0000000000138687e-01
5.0000000000000003e-02  2.9999999999999999e-01  6.0000000000138687e-01
5.0000000000000003e-02  0.0000000000000000e+00  4.0000000000166441e-01
5.0000000000000003e-02  2.9999999999999999e-01  4.0000000000166441e-01
5.0000000000000003e-02  0.0000000000000000e+00  2.0000000000083221e-01
5.0000000000000003e-02  2.9999999999999999e-01  2.0000000000083221e-01
5.0000000000000003e-02  0.0000000000000000e+00  0.0000000000000000e+00
5.0000000000000003e-02  2.9999999999999999e-01  0.0000000000000000e+00

CELLS 0 0


CELL_TYPES 0


POINT_DATA 24

VECTORS VertexNormals float

0.0000000000000000e+00 0.0000000000000000e+00 0.0000000000000000e+00 
0.0000000000000000e+00 0.0000000000000000e+00 0.0000000000000000e+00 
0.0000000000000000e+00 0.0000000000000000e+00 0.0000000000000000e+00 
0.0000000000000000e+00 0.0000000000000000e+00 0.0000000000000000e+00 
0.0000000000000000e+00 0.0000000000000000e+00 0.0000000000000000e+00 
0.0000000000000000e+00 0.0000000000000000e+00 0.0000000000000000e+00 
0.0000000000000000e+00 0.0000000000000000e+00 0.0000000000000000e+00 
0.0000000000000000e+00 0.0000000000000000e+00 0.0000000000000000e+00 
0.0000000000000000e+00 0.0000000000000000e+00 0.0000000000000000e+00 
0.0000000000000000e+00 0.0000000000000000e+00 0.0000000000000000e+00 
0.0000000000000000e+00 0.0000000000000000e+00 0.0000000000000000e+00 
0.0000000000000000e+00 0.0000000000000000e+00 0.0000000000000000e+00 
0.0000000000000000e+00 0.0000000000000000e+00 0.0000000000000000e+00 
0.0000000000000000e+00 0.0000000000000000e+00 0.0000000000000000e+00 
0.0000000000000000e+00 0.0000000000000000e+00 0.0000000000000000e+00 
0.0000000000000000e+00 0.0000000000000000e+00 0.0000000000000000e+00 
0.0000000000000000e+00 0.0000000000000000e+00 0.0000000000000000e+00 
0.0000000000000000e+00 0.0000000000000000e+00 0.0000000000000000e+00 
0.0000000000000000e+00 0.0000000000000000e+00 0.0000000000000000e+00 
0.0000000000000000e+00 0.0000000000000000e+00 0.0000000000000000e+00 
0.0000000000000000e+00 0.0000000000000000e+00 0.0000000000000000e+00 
0.0000000000000000e+00 0.0000000000000000e+00 0.0000000000000000e+00 
0.0000000000000000e+00 0.0000000000000000e+00 0.0000000000000000e+00 
0.0000000000000000e+00 0.0000000000000000e+00 0.0000000000000000e+00 

VECTORS Forces0 float
2.8455874994176580e+00 1.5893414026373794e-04 -1.1695319891475948e+00 
1.4490209554686420e+00 5.7284027675499373e-04 -1.3958827845745541e+00 
1.7428288996587202e+00 6.8911820605357878e-04 -1.6769542769519574e+00 
2.8109101730253974e+00 1.5701846716458602e-04 -1.1548722240203015e+00 
1.8048806225056129e+00 -1.7646149058381286e-02 9.0576693034920197e+00 
1.7912339916309667e+00 -1.7823338011811588e-02 9.1351807766986752e+00 
-5.9536458181929168e+00 3.6650772750839271e-02 -2.2546169023656653e+00 
-3.6605009246792495e+00 2.2717728076260327e-02 -1.4104592460979930e+00 
-1.6552723997067918e+01 1.2658187172061472e-01 2.2115104205458875e+00 
-1.3071674748330519e+01 1.0035003591753146e-01 1.7194817035133882e+00 
2.4622180177157013e+01 2.5656524114621249e+00 1.0312968390595815e+01 
6.0494352180535085e+00 4.1589886793494104e+00 9.2748905269016131e+00 
9.6193494138949820e-01 -9.2549107350598653e-02 1.5683050607601220e-01 
5.9452998698106407e+00 -4.2166891628509456e-01 1.0043664403838426e+00 
1.0093104182189347e+00 1.7460698153301030e-01 4.6202363042304695e-01 
-1.6421897574573339e+00 1.8928044394735724e+00 2.4784284969240153e+00 
2.0280512244335092e+01 -7.9880162177574029e-02 5.8398851093995754e+00 
2.3044747471057281e+01 -9.1371577478167570e-02 6.7497764614084623e+00 
4.1294222308568997e+00 -2.8972593811656129e-02 2.0476506102557881e+01 
3.9118174609767653e+00 -2.7994438582016695e-02 1.9803023965651409e+01 
-1.6067277660712197e+01 -5.0004742896110812e-03 1.3392778817018780e+01 
-1.6378660981612164e+01 -5.0971806898814200e-03 1.3647170835400594e+01 
-1.0739418671186341e+01 -7.8450334553172095e-04 4.0537917489329010e+00 
-1.0778755681049574e+01 -7.8735186625018198e-04 4.0659520724319513e+00 

VECTORS DisplacementDeltas0 float
0.0000000000000000e+00 0.0000000000000000e+00 0.0000000000000000e+00 
3.1560025471519315e-02 0.0000000000000000e+00 -1.0326382397862575e-02 
3.1491204389825486e-02 0.0000000000000000e+00 -1.0218607628935002e-02 
0.0000000000000000e+00 0.0000000000000000e+00 0.0000000000000000e+00 
4.7348084426439924e-02 0.0000000000000000e+00 -5.1859471961115219e-02 
4.7356732090679504e-02 0.0000000000000000e+00 -5.1562795522270596e-02 
9.6446709712567358e-03 0.0000000000000000e+00 -8.1568823551715464e-02 
1.0072496198845649e-02 0.0000000000000000e+00 -8.1646857165773426e-02 
-1.7217135648797482e-02 0.0000000000000000e+00 -7.6164076755381838e-02 
-1.7492491685441786e-02 0.0000000000000000e+00 -7.6176096510633340e-02 
-2.8973810495089292e-02 0.0000000000000000e+00 -6.9696151345519985e-02 
-2.9745256130937897e-02 0.0000000000000000e+00 -7.0053034472385312e-02 
1.2886813053606402e-318 0.0000000000000000e+00 0.0000000000000000e+00 
-2.8398445863310653e-02 0.0000000000000000e+00 -6.4912347585555641e-02 
-1.5910938040768818e-02 0.0000000000000000e+00 -6.9342483340540439e-02 
-1.5435995567183419e-02 0.0000000000000000e+00 -6.8965885121917814e-02 
6.1455606786647299e-03 0.0000000000000000e+00 -6.8925084098301254e-02 
6.5551171677713793e-03 0.0000000000000000e+00 -6.8764747937782089e-02 
2.9417161277783196e-02 0.0000000000000000e+00 -4.6800832493964696e-02 
2.9532531864167780e-02 0.0000000000000000e+00 -4.6758308152379455e-02 
2.1082298321400853e-02 0.0000000000000000e+00 -2.1967311918786259e-02 
2.0914997739218330e-02 0.0000000000000000e+00 -2.1862643723121647e-02 
0.0000000000000000e+00 0.0000000000000000e+00 0.0000000000000000e+00 
0.0000000000000000e+00 0.0000000000000000e+00 0.0000000000000000e+00 

