# vtk DataFile Version 2.0

ASCII

DATASET UNSTRUCTURED_GRID

POINTS 24 double 

-5.0000000000000003e-02  0.0000000000000000e+00  0.0000000000000000e+00
-5.0000000000000003e-02  0.0000000000000000e+00  1.9999999999955789e-01
-5.0000000000000003e-02  2.9999999999999999e-01  1.9999999999955789e-01
-5.0000000000000003e-02  2.9999999999999999e-01  0.0000000000000000e+00
-5.0000000000000003e-02  0.0000000000000000e+00  3.9999999999897490e-01
-5.0000000000000003e-02  2.9999999999999999e-01  3.9999999999897490e-01
-5.0000000000000003e-02  0.0000000000000000e+00  5.9999999999894682e-01
-5.0000000000000003e-02  2.9999999999999999e-01  5.9999999999894682e-01
-5.0000000000000003e-02  0.0000000000000000e+00  7.9999999999947335e-01
-5.0000000000000003e-02  2.9999999999999999e-01  7.9999999999947335e-01
-5.0000000000000003e-02  0.0000000000000000e+00  1.0000000000000000e+00
-5.0000000000000003e-02  2.9999999999999999e-01  1.0000000000000000e+00
5.0000000000000003e-02  0.0000000000000000e+00  1.0000000000000000e+00
5.0000000000000003e-02  2.9999999999999999e-01  1.0000000000000000e+00
5.0000000000000003e-02  0.0000000000000000e+00  7.9999999999999982e-01
5.0000000000000003e-02  2.9999999999999999e-01  7.9999999999999982e-01
5.0000000000000003e-02  0.0000000000000000e+00  6.0000000000138687e-01
5.0000000000000003e-02  2.9999999999999999e-01  6.0000000000138687e-01
5.0000000000000003e-02  0.0000000000000000e+00  4.0000000000166441e-01
5.0000000000000003e-02  2.9999999999999999e-01  4.0000000000166441e-01
5.0000000000000003e-02  0.0000000000000000e+00  2.0000000000083221e-01
5.0000000000000003e-02  2.9999999999999999e-01  2.0000000000083221e-01
5.0000000000000003e-02  0.0000000000000000e+00  0.0000000000000000e+00
5.0000000000000003e-02  2.9999999999999999e-01  0.0000000000000000e+00

CELLS 0 0


CELL_TYPES 0


POINT_DATA 24

VECTORS VertexNormals double

0.0000000000000000e+00 0.0000000000000000e+00 0.0000000000000000e+00 
0.0000000000000000e+00 0.0000000000000000e+00 0.0000000000000000e+00 
0.0000000000000000e+00 0.0000000000000000e+00 0.0000000000000000e+00 
0.0000000000000000e+00 0.0000000000000000e+00 0.0000000000000000e+00 
0.0000000000000000e+00 0.0000000000000000e+00 0.0000000000000000e+00 
0.0000000000000000e+00 0.0000000000000000e+00 0.0000000000000000e+00 
0.0000000000000000e+00 0.0000000000000000e+00 0.0000000000000000e+00 
0.0000000000000000e+00 0.0000000000000000e+00 0.0000000000000000e+00 
0.0000000000000000e+00 0.0000000000000000e+00 0.0000000000000000e+00 
0.0000000000000000e+00 0.0000000000000000e+00 0.0000000000000000e+00 
0.0000000000000000e+00 0.0000000000000000e+00 0.0000000000000000e+00 
0.0000000000000000e+00 0.0000000000000000e+00 0.0000000000000000e+00 
0.0000000000000000e+00 0.0000000000000000e+00 0.0000000000000000e+00 
0.0000000000000000e+00 0.0000000000000000e+00 0.0000000000000000e+00 
0.0000000000000000e+00 0.0000000000000000e+00 0.0000000000000000e+00 
0.0000000000000000e+00 0.0000000000000000e+00 0.0000000000000000e+00 
0.0000000000000000e+00 0.0000000000000000e+00 0.0000000000000000e+00 
0.0000000000000000e+00 0.0000000000000000e+00 0.0000000000000000e+00 
0.0000000000000000e+00 0.0000000000000000e+00 0.0000000000000000e+00 
0.0000000000000000e+00 0.0000000000000000e+00 0.0000000000000000e+00 
0.0000000000000000e+00 0.0000000000000000e+00 0.0000000000000000e+00 
0.0000000000000000e+00 0.0000000000000000e+00 0.0000000000000000e+00 
0.0000000000000000e+00 0.0000000000000000e+00 0.0000000000000000e+00 
0.0000000000000000e+00 0.0000000000000000e+00 0.0000000000000000e+00 

VECTORS Forces0 double
1.5548176190734690e+00 4.2941605950169538e-05 2.2423990374072354e-02 
3.1525082071989798e+00 2.6524980189916231e-04 2.9351645035393330e-02 
3.1606621358222373e+00 2.6593188645405975e-04 2.9439478286168771e-02 
1.5451183342956254e+00 4.2673780688976786e-05 2.2407962710165291e-02 
6.0225776953785184e+00 1.1989001967343405e-03 -1.2806456431656152e+00 
6.0469263571778678e+00 1.2045041732823849e-03 -1.2824650667697957e+00 
1.6904402995535361e+00 1.3673122844094908e-02 -1.8690474130378349e+00 
1.7201862634776151e+00 1.3753227234327363e-02 -1.8590878164022600e+00 
-1.0330785948857431e+00 -3.3825846702913159e-01 1.2228144995191970e+01 
-1.0257697117799212e+00 -3.0551322452507135e-01 1.0996243224607280e+01 
4.9815254893653700e+00 1.1296093594099077e+00 3.4311313911840542e+00 
-1.8655510905191472e-01 2.5568073865371960e-01 -5.3461302519582188e-01 
2.4571707651648317e-01 -1.2715279163613304e+00 -1.0070257346248930e+00 
-1.9022205464263184e+00 9.9155982248722978e+00 7.8896959407077745e+00 
2.3134829412583429e+00 -3.8428181527875138e-01 -3.5749607992359916e-01 
-6.9947751944857373e-01 2.8006613476633424e-01 1.5443070987425089e+00 
-1.3494514254920162e+00 -7.6443079914057114e-03 1.4418622699130581e+00 
1.0188510433813716e+00 5.5993067764992148e-03 -1.0639831369006645e+00 
5.8870657432507634e-01 -2.2941216562912632e-04 -9.7005487749236952e-02 
4.5170148115413200e-01 -1.7611165341120934e-04 -7.4788185806995422e-02 
-4.7837376249569907e-01 -1.7876221296682161e-05 -1.0749764250917844e-02 
-4.4588266899248896e-01 -1.6658211750092350e-05 -9.9787180826427981e-03 
-9.5749913799694428e-02 -2.1961503608763616e-06 -2.4736060190469894e-03 
-8.5059557770992056e-02 -1.9509915744530658e-06 -2.2029912247942792e-03 

VECTORS DisplacementDeltas0 double
0.0000000000000000e+00 0.0000000000000000e+00 0.0000000000000000e+00 
-1.8362290225725363e-03 0.0000000000000000e+00 2.4667277425670037e-03 
-1.8439838979553431e-03 0.0000000000000000e+00 2.3451857645775667e-03 
0.0000000000000000e+00 0.0000000000000000e+00 0.0000000000000000e+00 
8.0354287609125323e-04 0.0000000000000000e+00 7.9839679217395369e-03 
9.0161242276783971e-04 0.0000000000000000e+00 8.0354586013793930e-03 
2.4113729283464076e-02 0.0000000000000000e+00 2.8339163300208844e-03 
2.4016514425666730e-02 0.0000000000000000e+00 2.9068747287975226e-03 
3.6682810421792902e-02 0.0000000000000000e+00 -3.4102076069285524e-02 
3.8132554641233399e-02 0.0000000000000000e+00 -3.3021900924747882e-02 
2.8985995042533713e-02 0.0000000000000000e+00 -6.9676845960549572e-02 
2.9766460156109731e-02 0.0000000000000000e+00 -6.9415414611533832e-02 
2.0083175624671663e-318 0.0000000000000000e+00 0.0000000000000000e+00 
1.4245132868115462e-02 0.0000000000000000e+00 -6.4355998495569555e-02 
2.1956343025298891e-02 0.0000000000000000e+00 -3.1037761852665373e-02 
2.2972933130062406e-02 0.0000000000000000e+00 -3.0685971556041254e-02 
1.3795313010113984e-02 0.0000000000000000e+00 -4.8236838935948262e-03 
1.3751639764449966e-02 0.0000000000000000e+00 -4.9610499791690552e-03 
-8.9900807076093549e-04 0.0000000000000000e+00 3.7215407139142547e-03 
-8.6520459078569126e-04 0.0000000000000000e+00 3.6219574861992439e-03 
-2.6039512777118710e-03 0.0000000000000000e+00 3.2237365202085399e-03 
-2.6402081148027205e-03 0.0000000000000000e+00 3.2850887583964206e-03 
0.0000000000000000e+00 0.0000000000000000e+00 0.0000000000000000e+00 
0.0000000000000000e+00 0.0000000000000000e+00 0.0000000000000000e+00 

