# vtk DataFile Version 2.0

ASCII

DATASET UNSTRUCTURED_GRID

POINTS 24 float 

-5.0000000000000003e-02  0.0000000000000000e+00  0.0000000000000000e+00
-5.0000000000000003e-02  0.0000000000000000e+00  1.9999999999955789e-01
-5.0000000000000003e-02  2.9999999999999999e-01  1.9999999999955789e-01
-5.0000000000000003e-02  2.9999999999999999e-01  0.0000000000000000e+00
-5.0000000000000003e-02  0.0000000000000000e+00  3.9999999999897490e-01
-5.0000000000000003e-02  2.9999999999999999e-01  3.9999999999897490e-01
-5.0000000000000003e-02  0.0000000000000000e+00  5.9999999999894682e-01
-5.0000000000000003e-02  2.9999999999999999e-01  5.9999999999894682e-01
-5.0000000000000003e-02  0.0000000000000000e+00  7.9999999999947335e-01
-5.0000000000000003e-02  2.9999999999999999e-01  7.9999999999947335e-01
-5.0000000000000003e-02  0.0000000000000000e+00  1.0000000000000000e+00
-5.0000000000000003e-02  2.9999999999999999e-01  1.0000000000000000e+00
5.0000000000000003e-02  0.0000000000000000e+00  1.0000000000000000e+00
5.0000000000000003e-02  2.9999999999999999e-01  1.0000000000000000e+00
5.0000000000000003e-02  0.0000000000000000e+00  7.9999999999999982e-01
5.0000000000000003e-02  2.9999999999999999e-01  7.9999999999999982e-01
5.0000000000000003e-02  0.0000000000000000e+00  6.0000000000138687e-01
5.0000000000000003e-02  2.9999999999999999e-01  6.0000000000138687e-01
5.0000000000000003e-02  0.0000000000000000e+00  4.0000000000166441e-01
5.0000000000000003e-02  2.9999999999999999e-01  4.0000000000166441e-01
5.0000000000000003e-02  0.0000000000000000e+00  2.0000000000083221e-01
5.0000000000000003e-02  2.9999999999999999e-01  2.0000000000083221e-01
5.0000000000000003e-02  0.0000000000000000e+00  0.0000000000000000e+00
5.0000000000000003e-02  2.9999999999999999e-01  0.0000000000000000e+00

CELLS 0 0


CELL_TYPES 0


POINT_DATA 24

VECTORS VertexNormals float

0.0000000000000000e+00 0.0000000000000000e+00 0.0000000000000000e+00 
0.0000000000000000e+00 0.0000000000000000e+00 0.0000000000000000e+00 
0.0000000000000000e+00 0.0000000000000000e+00 0.0000000000000000e+00 
0.0000000000000000e+00 0.0000000000000000e+00 0.0000000000000000e+00 
0.0000000000000000e+00 0.0000000000000000e+00 0.0000000000000000e+00 
0.0000000000000000e+00 0.0000000000000000e+00 0.0000000000000000e+00 
0.0000000000000000e+00 0.0000000000000000e+00 0.0000000000000000e+00 
0.0000000000000000e+00 0.0000000000000000e+00 0.0000000000000000e+00 
0.0000000000000000e+00 0.0000000000000000e+00 0.0000000000000000e+00 
0.0000000000000000e+00 0.0000000000000000e+00 0.0000000000000000e+00 
0.0000000000000000e+00 0.0000000000000000e+00 0.0000000000000000e+00 
0.0000000000000000e+00 0.0000000000000000e+00 0.0000000000000000e+00 
0.0000000000000000e+00 0.0000000000000000e+00 0.0000000000000000e+00 
0.0000000000000000e+00 0.0000000000000000e+00 0.0000000000000000e+00 
0.0000000000000000e+00 0.0000000000000000e+00 0.0000000000000000e+00 
0.0000000000000000e+00 0.0000000000000000e+00 0.0000000000000000e+00 
0.0000000000000000e+00 0.0000000000000000e+00 0.0000000000000000e+00 
0.0000000000000000e+00 0.0000000000000000e+00 0.0000000000000000e+00 
0.0000000000000000e+00 0.0000000000000000e+00 0.0000000000000000e+00 
0.0000000000000000e+00 0.0000000000000000e+00 0.0000000000000000e+00 
0.0000000000000000e+00 0.0000000000000000e+00 0.0000000000000000e+00 
0.0000000000000000e+00 0.0000000000000000e+00 0.0000000000000000e+00 
0.0000000000000000e+00 0.0000000000000000e+00 0.0000000000000000e+00 
0.0000000000000000e+00 0.0000000000000000e+00 0.0000000000000000e+00 

VECTORS Forces0 float
1.1512789521342828e+00 -2.5817874207017932e-06 -1.0668799391663160e-02 
2.8113671353533962e+00 -5.0354058603193458e-05 -1.3318265555680551e-02 
2.8165731062879571e+00 -5.0449348730786813e-05 -1.3438081179697494e-02 
1.1504672661807640e+00 -2.5800130670194279e-06 -1.0669005662354934e-02 
1.4533390699336997e+00 -8.3165314447916985e-05 1.8711231252881103e-03 
1.4451812323780286e+00 -8.2700344859362588e-05 1.9153829241407470e-03 
1.3675786805955026e+00 2.8437331095902332e-04 -7.8958744781306711e-03 
1.3575439906522333e+00 2.8228386401869262e-04 -7.1877522639367331e-03 
3.7666750823710395e+00 3.5698872000023201e-03 -1.1184942899278100e-01 
3.9395858339410310e+00 3.7342786481746313e-03 -1.1666408630535939e-01 
-3.3886542123902902e-01 -2.0922503196681990e-04 1.7064985488860307e-01 
-6.1315051278993904e-01 -4.1065001805050036e-04 3.3247281010900775e-01 
7.4311978427504268e+00 -2.4706567078515224e-01 3.2973714804700656e+00 
7.0741642145513826e+00 -2.3525612221007755e-01 3.1324968045617685e+00 
-7.7518052023528938e-01 3.7965907199313401e-03 4.1163235635941625e-03 
-7.0562608661237336e-01 3.4532571420190028e-03 1.6233524771591831e-02 
2.4820610327751256e+00 6.1469809166617899e-04 -1.2010282889813550e-02 
2.5043043259715563e+00 6.1983818904671811e-04 -1.0841563842345641e-02 
1.8611429663609551e+00 -4.2712462058716931e-05 1.7427409199601517e-03 
1.8536763141731454e+00 -4.2539929181734783e-05 1.8287019887035377e-03 
1.6722165736410854e+00 -2.8266946522297484e-05 -7.5511833257272242e-03 
1.6748451665424506e+00 -2.8311219987891006e-05 -7.5933538657156205e-03 
1.0254689019194607e+00 -3.7110711097656865e-06 -9.0816953381185738e-03 
1.0246943590175837e+00 -3.7082467521396902e-06 -9.0859748487312087e-03 

VECTORS DisplacementDeltas0 float
0.0000000000000000e+00 0.0000000000000000e+00 0.0000000000000000e+00 
1.3867803696949576e-04 0.0000000000000000e+00 4.1503902526956123e-05 
1.2079546904379039e-04 0.0000000000000000e+00 3.7862487197365199e-05 
0.0000000000000000e+00 0.0000000000000000e+00 0.0000000000000000e+00 
4.5429957437095148e-04 0.0000000000000000e+00 1.4734852253400782e-04 
5.0483201375664619e-04 0.0000000000000000e+00 1.8198349866728984e-04 
3.8850663084045452e-04 0.0000000000000000e+00 2.8382587543415911e-04 
4.3934664067216432e-04 0.0000000000000000e+00 2.8191931253152702e-04 
1.1856535564514128e-03 0.0000000000000000e+00 3.8233667646612741e-04 
1.0135598844750048e-03 0.0000000000000000e+00 3.0105860464997645e-04 
3.4140144687656339e-03 0.0000000000000000e+00 -1.4983326409911447e-04 
4.0948748081830535e-03 0.0000000000000000e+00 -3.7953918574807081e-04 
-1.4089961714359005e-318 0.0000000000000000e+00 0.0000000000000000e+00 
2.8103757281113554e-03 0.0000000000000000e+00 -6.4547012824794870e-04 
1.6013853757175446e-03 0.0000000000000000e+00 -3.5920464762507901e-04 
1.5012991968729366e-03 0.0000000000000000e+00 -4.3527732329055489e-04 
-2.1165184917110072e-05 0.0000000000000000e+00 2.9756415801070798e-05 
-1.5056998568089002e-05 0.0000000000000000e+00 7.1453377303809542e-05 
2.5858903779535456e-04 0.0000000000000000e+00 2.0288165614952151e-04 
2.7241588050553347e-04 0.0000000000000000e+00 2.5495415555243389e-04 
6.4190570918377671e-05 0.0000000000000000e+00 -5.0062302553131633e-05 
5.4779124165597588e-05 0.0000000000000000e+00 -4.8479497899847383e-05 
0.0000000000000000e+00 0.0000000000000000e+00 0.0000000000000000e+00 
0.0000000000000000e+00 0.0000000000000000e+00 0.0000000000000000e+00 

