# vtk DataFile Version 2.0

ASCII

DATASET UNSTRUCTURED_GRID

POINTS 24 double 

-5.0000000000000003e-02  0.0000000000000000e+00  0.0000000000000000e+00
-5.0000000000000003e-02  0.0000000000000000e+00  1.9999999999955789e-01
-5.0000000000000003e-02  2.9999999999999999e-01  1.9999999999955789e-01
-5.0000000000000003e-02  2.9999999999999999e-01  0.0000000000000000e+00
-5.0000000000000003e-02  0.0000000000000000e+00  3.9999999999897490e-01
-5.0000000000000003e-02  2.9999999999999999e-01  3.9999999999897490e-01
-5.0000000000000003e-02  0.0000000000000000e+00  5.9999999999894682e-01
-5.0000000000000003e-02  2.9999999999999999e-01  5.9999999999894682e-01
-5.0000000000000003e-02  0.0000000000000000e+00  7.9999999999947335e-01
-5.0000000000000003e-02  2.9999999999999999e-01  7.9999999999947335e-01
-5.0000000000000003e-02  0.0000000000000000e+00  1.0000000000000000e+00
-5.0000000000000003e-02  2.9999999999999999e-01  1.0000000000000000e+00
5.0000000000000003e-02  0.0000000000000000e+00  1.0000000000000000e+00
5.0000000000000003e-02  2.9999999999999999e-01  1.0000000000000000e+00
5.0000000000000003e-02  0.0000000000000000e+00  7.9999999999999982e-01
5.0000000000000003e-02  2.9999999999999999e-01  7.9999999999999982e-01
5.0000000000000003e-02  0.0000000000000000e+00  6.0000000000138687e-01
5.0000000000000003e-02  2.9999999999999999e-01  6.0000000000138687e-01
5.0000000000000003e-02  0.0000000000000000e+00  4.0000000000166441e-01
5.0000000000000003e-02  2.9999999999999999e-01  4.0000000000166441e-01
5.0000000000000003e-02  0.0000000000000000e+00  2.0000000000083221e-01
5.0000000000000003e-02  2.9999999999999999e-01  2.0000000000083221e-01
5.0000000000000003e-02  0.0000000000000000e+00  0.0000000000000000e+00
5.0000000000000003e-02  2.9999999999999999e-01  0.0000000000000000e+00

CELLS 0 0


CELL_TYPES 0


POINT_DATA 24

VECTORS VertexNormals double

0.0000000000000000e+00 0.0000000000000000e+00 0.0000000000000000e+00 
0.0000000000000000e+00 0.0000000000000000e+00 0.0000000000000000e+00 
0.0000000000000000e+00 0.0000000000000000e+00 0.0000000000000000e+00 
0.0000000000000000e+00 0.0000000000000000e+00 0.0000000000000000e+00 
0.0000000000000000e+00 0.0000000000000000e+00 0.0000000000000000e+00 
0.0000000000000000e+00 0.0000000000000000e+00 0.0000000000000000e+00 
0.0000000000000000e+00 0.0000000000000000e+00 0.0000000000000000e+00 
0.0000000000000000e+00 0.0000000000000000e+00 0.0000000000000000e+00 
0.0000000000000000e+00 0.0000000000000000e+00 0.0000000000000000e+00 
0.0000000000000000e+00 0.0000000000000000e+00 0.0000000000000000e+00 
0.0000000000000000e+00 0.0000000000000000e+00 0.0000000000000000e+00 
0.0000000000000000e+00 0.0000000000000000e+00 0.0000000000000000e+00 
0.0000000000000000e+00 0.0000000000000000e+00 0.0000000000000000e+00 
0.0000000000000000e+00 0.0000000000000000e+00 0.0000000000000000e+00 
0.0000000000000000e+00 0.0000000000000000e+00 0.0000000000000000e+00 
0.0000000000000000e+00 0.0000000000000000e+00 0.0000000000000000e+00 
0.0000000000000000e+00 0.0000000000000000e+00 0.0000000000000000e+00 
0.0000000000000000e+00 0.0000000000000000e+00 0.0000000000000000e+00 
0.0000000000000000e+00 0.0000000000000000e+00 0.0000000000000000e+00 
0.0000000000000000e+00 0.0000000000000000e+00 0.0000000000000000e+00 
0.0000000000000000e+00 0.0000000000000000e+00 0.0000000000000000e+00 
0.0000000000000000e+00 0.0000000000000000e+00 0.0000000000000000e+00 
0.0000000000000000e+00 0.0000000000000000e+00 0.0000000000000000e+00 
0.0000000000000000e+00 0.0000000000000000e+00 0.0000000000000000e+00 

VECTORS Forces0 double
1.0838409726179610e+00 -4.2036499329391706e-05 -2.5079270318666032e-02 
2.6476106819815746e+00 -2.7557911258076082e-04 -3.3598849184255347e-02 
2.6452980498836123e+00 -2.7535940123404071e-04 -3.3463812069464485e-02 
1.0850906389800830e+00 -4.2082210415032330e-05 -2.5233871229025821e-02 
1.5798382764372112e+00 5.8013124276350836e-05 -9.5800751362438916e-03 
1.5728125030448323e+00 5.7754012811719191e-05 -9.5505900742783936e-03 
2.7892960568851368e+00 2.5934903964256301e-03 -2.7025181791886488e-01 
2.6805217243707236e+00 2.4929516852442734e-03 -2.5166179892318957e-01 
9.5717454640751565e-01 6.5453534190258612e-03 -2.4859665100206624e-01 
1.7915405656271501e+00 1.2258491694034403e-02 -4.6211572981316540e-01 
-3.7909388858815440e-01 -3.4478930793531218e-03 1.7039589190894000e-01 
-1.5975271070751966e+00 -1.8987846403614790e-02 1.3013102028041823e+00 
8.1277761688259460e+00 -2.0394844485551809e+00 1.0937507991934785e+00 
5.4518431686612017e+00 -1.3698646059881763e+00 7.1762114127210097e-01 
-1.2654387340202411e+00 5.0871727682896356e-02 6.2612839974235876e-02 
-1.1850230758707883e+00 4.8876623312476795e-02 2.2462634377498766e-01 
2.1382875757215727e+00 1.7428996880045071e-03 -1.9668512773840030e-01 
2.3265820550070888e+00 1.8855834542448530e-03 -2.0722673497648397e-01 
1.8345757455224481e+00 6.1078684526669194e-05 -1.0099175936033889e-02 
1.8005468473062380e+00 5.9977915319340659e-05 -1.0035360727147195e-02 
1.3831057324156399e+00 -1.0335370281667653e-04 -1.7104432755995092e-02 
1.3858841847935242e+00 -1.0356310770006094e-04 -1.7079980325630250e-02 
9.1612677461117187e-01 -2.7084568893851942e-05 -2.0768151339680112e-02 
9.1220171920533977e-01 -2.6967611323776646e-05 -2.0760440144156959e-02 

VECTORS DisplacementDeltas0 double
0.0000000000000000e+00 0.0000000000000000e+00 0.0000000000000000e+00 
-1.6971831055942552e-05 0.0000000000000000e+00 -1.1182424730908668e-04 
-3.3407515231761824e-05 0.0000000000000000e+00 -1.2133773149335640e-04 
0.0000000000000000e+00 0.0000000000000000e+00 0.0000000000000000e+00 
-4.1853526062217037e-04 0.0000000000000000e+00 9.9167468727999727e-06 
-3.6793426089792554e-04 0.0000000000000000e+00 2.8879661175409906e-05 
1.2059472986886378e-03 0.0000000000000000e+00 1.0220699933320540e-03 
1.2030947543312915e-03 0.0000000000000000e+00 1.0110867303232951e-03 
8.3077848100763779e-03 0.0000000000000000e+00 8.4575393818909095e-04 
7.8345110763262359e-03 0.0000000000000000e+00 7.6771377986712026e-04 
1.8746238344659563e-02 0.0000000000000000e+00 -2.1370554919530010e-03 
1.8558076738299845e-02 0.0000000000000000e+00 -2.0060273474897215e-03 
-1.5608521883416661e-319 0.0000000000000000e+00 0.0000000000000000e+00 
1.6486396933630139e-02 0.0000000000000000e+00 -7.4414052543072748e-03 
6.8780297169611336e-03 0.0000000000000000e+00 -3.7606325997256414e-03 
6.6190902009071843e-03 0.0000000000000000e+00 -3.4467409040848966e-03 
1.0146931106134786e-03 0.0000000000000000e+00 -9.2315105982127270e-04 
1.0839375256013581e-03 0.0000000000000000e+00 -1.0015900105112339e-03 
-1.8468010538089802e-04 0.0000000000000000e+00 -3.0269112564760333e-05 
-1.3745781036339326e-04 0.0000000000000000e+00 -3.8199786585923340e-05 
8.8713932738198990e-05 0.0000000000000000e+00 -1.6286610478034565e-07 
6.2568082524138173e-05 0.0000000000000000e+00 9.5119272721612554e-05 
0.0000000000000000e+00 0.0000000000000000e+00 0.0000000000000000e+00 
0.0000000000000000e+00 0.0000000000000000e+00 0.0000000000000000e+00 

