# vtk DataFile Version 2.0

ASCII

DATASET UNSTRUCTURED_GRID

POINTS 24 float 

-5.0000000000000003e-02  0.0000000000000000e+00  0.0000000000000000e+00
-5.0000000000000003e-02  0.0000000000000000e+00  1.9999999999955789e-01
-5.0000000000000003e-02  2.9999999999999999e-01  1.9999999999955789e-01
-5.0000000000000003e-02  2.9999999999999999e-01  0.0000000000000000e+00
-5.0000000000000003e-02  0.0000000000000000e+00  3.9999999999897490e-01
-5.0000000000000003e-02  2.9999999999999999e-01  3.9999999999897490e-01
-5.0000000000000003e-02  0.0000000000000000e+00  5.9999999999894682e-01
-5.0000000000000003e-02  2.9999999999999999e-01  5.9999999999894682e-01
-5.0000000000000003e-02  0.0000000000000000e+00  7.9999999999947335e-01
-5.0000000000000003e-02  2.9999999999999999e-01  7.9999999999947335e-01
-5.0000000000000003e-02  0.0000000000000000e+00  1.0000000000000000e+00
-5.0000000000000003e-02  2.9999999999999999e-01  1.0000000000000000e+00
5.0000000000000003e-02  0.0000000000000000e+00  1.0000000000000000e+00
5.0000000000000003e-02  2.9999999999999999e-01  1.0000000000000000e+00
5.0000000000000003e-02  0.0000000000000000e+00  7.9999999999999982e-01
5.0000000000000003e-02  2.9999999999999999e-01  7.9999999999999982e-01
5.0000000000000003e-02  0.0000000000000000e+00  6.0000000000138687e-01
5.0000000000000003e-02  2.9999999999999999e-01  6.0000000000138687e-01
5.0000000000000003e-02  0.0000000000000000e+00  4.0000000000166441e-01
5.0000000000000003e-02  2.9999999999999999e-01  4.0000000000166441e-01
5.0000000000000003e-02  0.0000000000000000e+00  2.0000000000083221e-01
5.0000000000000003e-02  2.9999999999999999e-01  2.0000000000083221e-01
5.0000000000000003e-02  0.0000000000000000e+00  0.0000000000000000e+00
5.0000000000000003e-02  2.9999999999999999e-01  0.0000000000000000e+00

CELLS 0 0


CELL_TYPES 0


POINT_DATA 24

VECTORS VertexNormals float

0.0000000000000000e+00 0.0000000000000000e+00 0.0000000000000000e+00 
0.0000000000000000e+00 0.0000000000000000e+00 0.0000000000000000e+00 
0.0000000000000000e+00 0.0000000000000000e+00 0.0000000000000000e+00 
0.0000000000000000e+00 0.0000000000000000e+00 0.0000000000000000e+00 
0.0000000000000000e+00 0.0000000000000000e+00 0.0000000000000000e+00 
0.0000000000000000e+00 0.0000000000000000e+00 0.0000000000000000e+00 
0.0000000000000000e+00 0.0000000000000000e+00 0.0000000000000000e+00 
0.0000000000000000e+00 0.0000000000000000e+00 0.0000000000000000e+00 
0.0000000000000000e+00 0.0000000000000000e+00 0.0000000000000000e+00 
0.0000000000000000e+00 0.0000000000000000e+00 0.0000000000000000e+00 
0.0000000000000000e+00 0.0000000000000000e+00 0.0000000000000000e+00 
0.0000000000000000e+00 0.0000000000000000e+00 0.0000000000000000e+00 
0.0000000000000000e+00 0.0000000000000000e+00 0.0000000000000000e+00 
0.0000000000000000e+00 0.0000000000000000e+00 0.0000000000000000e+00 
0.0000000000000000e+00 0.0000000000000000e+00 0.0000000000000000e+00 
0.0000000000000000e+00 0.0000000000000000e+00 0.0000000000000000e+00 
0.0000000000000000e+00 0.0000000000000000e+00 0.0000000000000000e+00 
0.0000000000000000e+00 0.0000000000000000e+00 0.0000000000000000e+00 
0.0000000000000000e+00 0.0000000000000000e+00 0.0000000000000000e+00 
0.0000000000000000e+00 0.0000000000000000e+00 0.0000000000000000e+00 
0.0000000000000000e+00 0.0000000000000000e+00 0.0000000000000000e+00 
0.0000000000000000e+00 0.0000000000000000e+00 0.0000000000000000e+00 
0.0000000000000000e+00 0.0000000000000000e+00 0.0000000000000000e+00 
0.0000000000000000e+00 0.0000000000000000e+00 0.0000000000000000e+00 

VECTORS Forces0 float
1.8269306859971040e+00 1.0996907288457548e-06 -7.3024098074546649e-03 
4.1957061909368534e+00 3.1233404577674075e-06 -6.0113567850567200e-03 
4.1956053665155384e+00 3.1232076563253155e-06 -6.0246704815336422e-03 
1.8266666411131454e+00 1.0995331625017559e-06 -7.2980566179785943e-03 
2.9183620143471383e+00 -3.3347306452830666e-05 2.2012936606832720e-03 
2.9200565358123423e+00 -3.3367604202766718e-05 2.1532306695915522e-03 
2.4396100005641790e+00 1.7801180301288302e-04 -4.7016409110703936e-03 
2.4311775748022932e+00 1.7750176735892821e-04 -3.9054678603692751e-03 
5.1811000258853808e+00 3.7323406551764554e-03 -3.9733684840770923e-02 
5.2351242456696170e+00 3.7719442481775464e-03 -3.8641135007263266e-02 
3.8214772012500559e-01 3.7858973757601326e-04 -1.9153256477875666e-01 
2.8982519171673016e-01 2.8859213670214174e-04 -1.4874797209184973e-01 
6.8093944264696322e+00 -7.9374153359929284e-02 3.2804629219896673e+00 
6.6507786794567858e+00 -7.7528141362469591e-02 3.2028854744208113e+00 
-1.5069628525001912e+00 1.9577243730345673e-03 2.2363549449570925e-03 
-1.4220140321897909e+00 1.8446550682806970e-03 1.0352139637907605e-02 
1.4165187701224005e+00 5.6217964123939010e-05 -2.4961405711379525e-04 
1.4113981440646850e+00 5.6032963841450759e-05 2.1957606242221540e-04 
1.0598943681559549e+00 -1.7678470234059413e-05 5.6725757379898153e-05 
1.0592475709415237e+00 -1.7667882004423387e-05 1.8975257510712664e-05 
7.6927217355040178e-01 1.0849803276099498e-06 -9.2779205218959356e-04 
7.6757940388180013e-01 1.0825973337006163e-06 -9.2789194937211773e-04 
5.4400747559228180e-01 4.2494115226884454e-07 -1.6164701622275006e-03 
5.4323708401367798e-01 4.2433887597108034e-07 -1.6129075782671711e-03 

VECTORS DisplacementDeltas0 float
0.0000000000000000e+00 0.0000000000000000e+00 0.0000000000000000e+00 
1.1856826064890206e-04 0.0000000000000000e+00 -5.3711134617618161e-05 
1.1705930458914701e-04 0.0000000000000000e+00 -5.3343596623356419e-05 
0.0000000000000000e+00 0.0000000000000000e+00 0.0000000000000000e+00 
1.1218438394165837e-04 0.0000000000000000e+00 2.3925656802863730e-05 
1.1001658031144958e-04 0.0000000000000000e+00 1.9651539347862032e-05 
1.6816153227811948e-04 0.0000000000000000e+00 1.4978063859045796e-04 
2.1438108356653654e-04 0.0000000000000000e+00 8.4628124629648781e-05 
4.3628878225355426e-04 0.0000000000000000e+00 1.9266882921231069e-04 
4.5657216065005010e-04 0.0000000000000000e+00 3.5419536872807077e-04 
1.2978358992284719e-03 0.0000000000000000e+00 -9.4039889621487581e-04 
9.8267599729945452e-04 0.0000000000000000e+00 -1.1374316273086607e-03 
1.1245329351863444e-318 0.0000000000000000e+00 0.0000000000000000e+00 
1.9518205550622121e-03 0.0000000000000000e+00 5.6111980980876346e-04 
1.5108268720525188e-04 0.0000000000000000e+00 -2.7483164676603901e-04 
1.3969523262268968e-04 0.0000000000000000e+00 -3.2821785027600120e-04 
2.0808101288824374e-04 0.0000000000000000e+00 1.3156595655611835e-04 
2.5188066648336850e-04 0.0000000000000000e+00 1.2005588951938513e-04 
1.3502254366853337e-04 0.0000000000000000e+00 1.6979392948247625e-05 
1.2799880588703144e-04 0.0000000000000000e+00 2.0544608326561503e-05 
3.9539881030498206e-05 0.0000000000000000e+00 -3.7090666429988565e-06 
3.7337487073115075e-05 0.0000000000000000e+00 -3.7823924649434263e-06 
0.0000000000000000e+00 0.0000000000000000e+00 0.0000000000000000e+00 
0.0000000000000000e+00 0.0000000000000000e+00 0.0000000000000000e+00 

