# vtk DataFile Version 2.0

ASCII

DATASET UNSTRUCTURED_GRID

POINTS 24 float 

-5.0000000000000003e-02  0.0000000000000000e+00  0.0000000000000000e+00
-5.0000000000000003e-02  0.0000000000000000e+00  1.9999999999955789e-01
-5.0000000000000003e-02  2.9999999999999999e-01  1.9999999999955789e-01
-5.0000000000000003e-02  2.9999999999999999e-01  0.0000000000000000e+00
-5.0000000000000003e-02  0.0000000000000000e+00  3.9999999999897490e-01
-5.0000000000000003e-02  2.9999999999999999e-01  3.9999999999897490e-01
-5.0000000000000003e-02  0.0000000000000000e+00  5.9999999999894682e-01
-5.0000000000000003e-02  2.9999999999999999e-01  5.9999999999894682e-01
-5.0000000000000003e-02  0.0000000000000000e+00  7.9999999999947335e-01
-5.0000000000000003e-02  2.9999999999999999e-01  7.9999999999947335e-01
-5.0000000000000003e-02  0.0000000000000000e+00  1.0000000000000000e+00
-5.0000000000000003e-02  2.9999999999999999e-01  1.0000000000000000e+00
5.0000000000000003e-02  0.0000000000000000e+00  1.0000000000000000e+00
5.0000000000000003e-02  2.9999999999999999e-01  1.0000000000000000e+00
5.0000000000000003e-02  0.0000000000000000e+00  7.9999999999999982e-01
5.0000000000000003e-02  2.9999999999999999e-01  7.9999999999999982e-01
5.0000000000000003e-02  0.0000000000000000e+00  6.0000000000138687e-01
5.0000000000000003e-02  2.9999999999999999e-01  6.0000000000138687e-01
5.0000000000000003e-02  0.0000000000000000e+00  4.0000000000166441e-01
5.0000000000000003e-02  2.9999999999999999e-01  4.0000000000166441e-01
5.0000000000000003e-02  0.0000000000000000e+00  2.0000000000083221e-01
5.0000000000000003e-02  2.9999999999999999e-01  2.0000000000083221e-01
5.0000000000000003e-02  0.0000000000000000e+00  0.0000000000000000e+00
5.0000000000000003e-02  2.9999999999999999e-01  0.0000000000000000e+00

CELLS 0 0


CELL_TYPES 0


POINT_DATA 24

VECTORS VertexNormals float

0.0000000000000000e+00 0.0000000000000000e+00 0.0000000000000000e+00 
0.0000000000000000e+00 0.0000000000000000e+00 0.0000000000000000e+00 
0.0000000000000000e+00 0.0000000000000000e+00 0.0000000000000000e+00 
0.0000000000000000e+00 0.0000000000000000e+00 0.0000000000000000e+00 
0.0000000000000000e+00 0.0000000000000000e+00 0.0000000000000000e+00 
0.0000000000000000e+00 0.0000000000000000e+00 0.0000000000000000e+00 
0.0000000000000000e+00 0.0000000000000000e+00 0.0000000000000000e+00 
0.0000000000000000e+00 0.0000000000000000e+00 0.0000000000000000e+00 
0.0000000000000000e+00 0.0000000000000000e+00 0.0000000000000000e+00 
0.0000000000000000e+00 0.0000000000000000e+00 0.0000000000000000e+00 
0.0000000000000000e+00 0.0000000000000000e+00 0.0000000000000000e+00 
0.0000000000000000e+00 0.0000000000000000e+00 0.0000000000000000e+00 
0.0000000000000000e+00 0.0000000000000000e+00 0.0000000000000000e+00 
0.0000000000000000e+00 0.0000000000000000e+00 0.0000000000000000e+00 
0.0000000000000000e+00 0.0000000000000000e+00 0.0000000000000000e+00 
0.0000000000000000e+00 0.0000000000000000e+00 0.0000000000000000e+00 
0.0000000000000000e+00 0.0000000000000000e+00 0.0000000000000000e+00 
0.0000000000000000e+00 0.0000000000000000e+00 0.0000000000000000e+00 
0.0000000000000000e+00 0.0000000000000000e+00 0.0000000000000000e+00 
0.0000000000000000e+00 0.0000000000000000e+00 0.0000000000000000e+00 
0.0000000000000000e+00 0.0000000000000000e+00 0.0000000000000000e+00 
0.0000000000000000e+00 0.0000000000000000e+00 0.0000000000000000e+00 
0.0000000000000000e+00 0.0000000000000000e+00 0.0000000000000000e+00 
0.0000000000000000e+00 0.0000000000000000e+00 0.0000000000000000e+00 

VECTORS Forces0 float
1.4532768968896168e+00 -7.9977254843407993e-07 -9.5662873644590807e-03 
3.4085523497891166e+00 2.2010338014078381e-05 -9.6160610875592658e-03 
3.4071757270710306e+00 2.2001685817177061e-05 -9.5293459772206844e-03 
1.4535797700108026e+00 -7.9994021656956691e-07 -9.5706794962671614e-03 
2.1901004533050386e+00 8.4201290835235332e-05 2.0132170287323311e-03 
2.1912276862441025e+00 8.4242295583212431e-05 1.9508584379988566e-03 
1.8929281152456923e+00 1.5035154200485174e-04 -5.5616786727691455e-03 
1.8862341976727257e+00 1.4990963611261781e-04 -4.8492141666275686e-03 
4.4522841556217170e+00 3.7586004210746148e-03 -7.2796079026062402e-02 
4.5296438790079163e+00 3.8245826300988958e-03 -7.2971378567104325e-02 
8.8030470342013764e-02 7.5495546482420780e-05 -4.4248492074775096e-02 
-7.0779188695831580e-02 -6.2188070337814913e-05 3.7152712384569922e-02 
7.0758939087223487e+00 -1.3911563972293922e-01 3.2926649779622066e+00 
6.8328240556996667e+00 -1.3435826845068427e-01 3.1757285425416706e+00 
-1.2806509284351564e+00 3.3250547684541367e-03 3.4809919413260116e-03 
-1.2298534398914156e+00 3.1897781136875198e-03 1.6004447647186403e-02 
1.7537925208059375e+00 2.0535733448505283e-04 -2.9944090814868398e-03 
1.7646234609534930e+00 2.0651768946504148e-04 -2.2924941330696963e-03 
1.2832486659410698e+00 2.9032526659392674e-05 6.0582614620648654e-04 
1.2787506246686606e+00 2.8930448457920175e-05 5.8794699402274692e-04 
9.4671748485563734e-01 1.0705398512271842e-06 -2.4325570314726575e-03 
9.4473989133398950e-01 1.0684974940224487e-06 -2.4143537836633583e-03 
6.7191295485014024e-01 -7.9319977916503847e-07 -3.9009570125147662e-03 
6.7129929470317207e-01 -7.9247941440306921e-07 -3.8997730995417785e-03 

VECTORS DisplacementDeltas0 float
0.0000000000000000e+00 0.0000000000000000e+00 0.0000000000000000e+00 
3.8233157071134133e-04 0.0000000000000000e+00 1.6407225633439441e-04 
3.8948064823843585e-04 0.0000000000000000e+00 1.6076421203179415e-04 
0.0000000000000000e+00 0.0000000000000000e+00 0.0000000000000000e+00 
3.7037336082234988e-04 0.0000000000000000e+00 -9.3850791685202612e-08 
3.5895371386258115e-04 0.0000000000000000e+00 -1.8919779288061194e-06 
-2.0694275477089465e-05 0.0000000000000000e+00 3.4124656118425189e-06 
-9.3376893999544771e-05 0.0000000000000000e+00 9.2511026165577093e-05 
1.1115310353203101e-03 0.0000000000000000e+00 5.0073966901488282e-04 
1.1057056539367951e-03 0.0000000000000000e+00 4.8385935212073063e-04 
2.2027877827100555e-03 0.0000000000000000e+00 1.2552324007206043e-03 
2.1295749174148988e-03 0.0000000000000000e+00 1.8700369274520124e-03 
3.5265615295114832e-318 0.0000000000000000e+00 0.0000000000000000e+00 
3.3632147120742995e-03 0.0000000000000000e+00 -7.4384836898059084e-04 
7.3141561769835971e-04 0.0000000000000000e+00 -3.3783562895651641e-04 
7.2200356773845383e-04 0.0000000000000000e+00 -1.0785806708173250e-04 
5.0258794132980748e-04 0.0000000000000000e+00 1.2570224063639855e-04 
4.4001123977094884e-04 0.0000000000000000e+00 1.6389399938293234e-04 
5.7257425145789136e-04 0.0000000000000000e+00 6.3741096608741255e-05 
5.8126277889753559e-04 0.0000000000000000e+00 3.3756282253323978e-05 
5.6700437442701790e-04 0.0000000000000000e+00 -7.3483446756970991e-05 
5.7468334656707006e-04 0.0000000000000000e+00 -7.5303463049563422e-05 
0.0000000000000000e+00 0.0000000000000000e+00 0.0000000000000000e+00 
0.0000000000000000e+00 0.0000000000000000e+00 0.0000000000000000e+00 

