# vtk DataFile Version 2.0

ASCII

DATASET UNSTRUCTURED_GRID

POINTS 24 float 

-5.0000000000000003e-02  0.0000000000000000e+00  0.0000000000000000e+00
-5.0000000000000003e-02  0.0000000000000000e+00  1.9999999999955789e-01
-5.0000000000000003e-02  2.9999999999999999e-01  1.9999999999955789e-01
-5.0000000000000003e-02  2.9999999999999999e-01  0.0000000000000000e+00
-5.0000000000000003e-02  0.0000000000000000e+00  3.9999999999897490e-01
-5.0000000000000003e-02  2.9999999999999999e-01  3.9999999999897490e-01
-5.0000000000000003e-02  0.0000000000000000e+00  5.9999999999894682e-01
-5.0000000000000003e-02  2.9999999999999999e-01  5.9999999999894682e-01
-5.0000000000000003e-02  0.0000000000000000e+00  7.9999999999947335e-01
-5.0000000000000003e-02  2.9999999999999999e-01  7.9999999999947335e-01
-5.0000000000000003e-02  0.0000000000000000e+00  1.0000000000000000e+00
-5.0000000000000003e-02  2.9999999999999999e-01  1.0000000000000000e+00
5.0000000000000003e-02  0.0000000000000000e+00  1.0000000000000000e+00
5.0000000000000003e-02  2.9999999999999999e-01  1.0000000000000000e+00
5.0000000000000003e-02  0.0000000000000000e+00  7.9999999999999982e-01
5.0000000000000003e-02  2.9999999999999999e-01  7.9999999999999982e-01
5.0000000000000003e-02  0.0000000000000000e+00  6.0000000000138687e-01
5.0000000000000003e-02  2.9999999999999999e-01  6.0000000000138687e-01
5.0000000000000003e-02  0.0000000000000000e+00  4.0000000000166441e-01
5.0000000000000003e-02  2.9999999999999999e-01  4.0000000000166441e-01
5.0000000000000003e-02  0.0000000000000000e+00  2.0000000000083221e-01
5.0000000000000003e-02  2.9999999999999999e-01  2.0000000000083221e-01
5.0000000000000003e-02  0.0000000000000000e+00  0.0000000000000000e+00
5.0000000000000003e-02  2.9999999999999999e-01  0.0000000000000000e+00

CELLS 0 0


CELL_TYPES 0


POINT_DATA 24

VECTORS VertexNormals float

0.0000000000000000e+00 0.0000000000000000e+00 0.0000000000000000e+00 
0.0000000000000000e+00 0.0000000000000000e+00 0.0000000000000000e+00 
0.0000000000000000e+00 0.0000000000000000e+00 0.0000000000000000e+00 
0.0000000000000000e+00 0.0000000000000000e+00 0.0000000000000000e+00 
0.0000000000000000e+00 0.0000000000000000e+00 0.0000000000000000e+00 
0.0000000000000000e+00 0.0000000000000000e+00 0.0000000000000000e+00 
0.0000000000000000e+00 0.0000000000000000e+00 0.0000000000000000e+00 
0.0000000000000000e+00 0.0000000000000000e+00 0.0000000000000000e+00 
0.0000000000000000e+00 0.0000000000000000e+00 0.0000000000000000e+00 
0.0000000000000000e+00 0.0000000000000000e+00 0.0000000000000000e+00 
0.0000000000000000e+00 0.0000000000000000e+00 0.0000000000000000e+00 
0.0000000000000000e+00 0.0000000000000000e+00 0.0000000000000000e+00 
0.0000000000000000e+00 0.0000000000000000e+00 0.0000000000000000e+00 
0.0000000000000000e+00 0.0000000000000000e+00 0.0000000000000000e+00 
0.0000000000000000e+00 0.0000000000000000e+00 0.0000000000000000e+00 
0.0000000000000000e+00 0.0000000000000000e+00 0.0000000000000000e+00 
0.0000000000000000e+00 0.0000000000000000e+00 0.0000000000000000e+00 
0.0000000000000000e+00 0.0000000000000000e+00 0.0000000000000000e+00 
0.0000000000000000e+00 0.0000000000000000e+00 0.0000000000000000e+00 
0.0000000000000000e+00 0.0000000000000000e+00 0.0000000000000000e+00 
0.0000000000000000e+00 0.0000000000000000e+00 0.0000000000000000e+00 
0.0000000000000000e+00 0.0000000000000000e+00 0.0000000000000000e+00 
0.0000000000000000e+00 0.0000000000000000e+00 0.0000000000000000e+00 
0.0000000000000000e+00 0.0000000000000000e+00 0.0000000000000000e+00 

VECTORS Forces0 float
1.1709894942025683e+00 1.9502649913458168e-05 -2.5249480514455254e-02 
2.7943804962356120e+00 1.4201818911267010e-04 -3.4681354385576936e-02 
2.7871216862737112e+00 1.4164779307005687e-04 -3.4591701256241468e-02 
1.1738604098755006e+00 1.9552200274990899e-05 -2.5253053102578721e-02 
1.5635851211539065e+00 -4.5900821502553650e-05 -2.7768126329752885e-03 
1.5724900597116733e+00 -4.6176552709133398e-05 -3.0109300053088013e-03 
2.8426589473207295e+00 1.6339664162351197e-03 -1.8279842279936820e-01 
2.7574574344631193e+00 1.5851816103692521e-03 -1.7086772876376016e-01 
2.4136578447178634e+00 1.2398784328097517e-02 -4.4758253067424431e-01 
3.0498433244759044e+00 1.5677024381162186e-02 -5.6121791269590493e-01 
-2.3938386428017625e-01 -1.2593113173912265e-03 1.1322932987078949e-01 
-1.2331933141732658e+00 -8.0780987657427892e-03 8.8960398429948417e-01 
7.5873995301358059e+00 -1.3650903361030344e+00 1.7145214269583298e+00 
5.7161937808958925e+00 -1.0294509403557464e+00 1.2785604497714897e+00 
-1.8685764830479548e+00 5.3488149615249392e-02 6.7552743838086862e-02 
-1.6842933674423015e+00 4.8917921648874929e-02 2.2922088294452550e-01 
1.2721041541249354e+00 7.3479756748009409e-04 -7.7921181890045904e-02 
1.4039297029356421e+00 8.0815298335843149e-04 -8.2764526848938952e-02 
5.9325353796876734e-01 1.7747383300227461e-06 -1.1814935020919646e-03 
5.8240532759892549e-01 1.7473347375342539e-06 -1.2313179081731543e-03 
1.5674937352387094e-01 6.6094204589663503e-06 -1.8790745088334596e-03 
1.4823722221039723e-01 6.2509609124827144e-06 -1.7747550746564839e-03 
2.9933668326190871e-01 3.5697066410935177e-06 -6.0874112959192310e-03 
2.9872811563561130e-01 3.5629818737245497e-06 -6.0643049196213725e-03 

VECTORS DisplacementDeltas0 float
0.0000000000000000e+00 0.0000000000000000e+00 0.0000000000000000e+00 
2.8920451603360077e-04 0.0000000000000000e+00 -8.5236690717153431e-05 
3.6804107453492505e-04 0.0000000000000000e+00 -2.3030350679490818e-05 
0.0000000000000000e+00 0.0000000000000000e+00 0.0000000000000000e+00 
4.6237843032717217e-04 0.0000000000000000e+00 -1.5890611319406295e-04 
4.0709557370291125e-04 0.0000000000000000e+00 -1.3879650937208304e-04 
1.0251767010670907e-03 0.0000000000000000e+00 3.7441998128297726e-04 
1.0120485141087445e-03 0.0000000000000000e+00 4.7760999970332385e-04 
6.3220143974397555e-03 0.0000000000000000e+00 1.4282016712893770e-03 
6.0984683565810261e-03 0.0000000000000000e+00 1.4084547499579382e-03 
1.4637051935587661e-02 0.0000000000000000e+00 -8.4291865210591637e-04 
1.4708556162427427e-02 0.0000000000000000e+00 -6.5333006593571016e-04 
-4.4431125904244965e-318 0.0000000000000000e+00 0.0000000000000000e+00 
1.3168652212840960e-02 0.0000000000000000e+00 -4.7474282862418043e-03 
5.6440845154694975e-03 0.0000000000000000e+00 -2.5761401525603166e-03 
5.5421200663710521e-03 0.0000000000000000e+00 -2.3942681978582018e-03 
8.3889687179556456e-04 0.0000000000000000e+00 -4.5076922420414544e-04 
7.6204370030164004e-04 0.0000000000000000e+00 -3.6804325396237389e-04 
1.8794850020131555e-04 0.0000000000000000e+00 -1.7497787709265625e-04 
1.1633826306573251e-04 0.0000000000000000e+00 -1.1040868069194654e-04 
3.1052944765701620e-04 0.0000000000000000e+00 -4.5949451292948395e-05 
3.6892195529018693e-04 0.0000000000000000e+00 -7.3679142899482717e-05 
0.0000000000000000e+00 0.0000000000000000e+00 0.0000000000000000e+00 
0.0000000000000000e+00 0.0000000000000000e+00 0.0000000000000000e+00 

