# vtk DataFile Version 2.0

ASCII

DATASET UNSTRUCTURED_GRID

POINTS 24 float 

-5.0000000000000003e-02  0.0000000000000000e+00  0.0000000000000000e+00
-5.0000000000000003e-02  0.0000000000000000e+00  1.9999999999955789e-01
-5.0000000000000003e-02  2.9999999999999999e-01  1.9999999999955789e-01
-5.0000000000000003e-02  2.9999999999999999e-01  0.0000000000000000e+00
-5.0000000000000003e-02  0.0000000000000000e+00  3.9999999999897490e-01
-5.0000000000000003e-02  2.9999999999999999e-01  3.9999999999897490e-01
-5.0000000000000003e-02  0.0000000000000000e+00  5.9999999999894682e-01
-5.0000000000000003e-02  2.9999999999999999e-01  5.9999999999894682e-01
-5.0000000000000003e-02  0.0000000000000000e+00  7.9999999999947335e-01
-5.0000000000000003e-02  2.9999999999999999e-01  7.9999999999947335e-01
-5.0000000000000003e-02  0.0000000000000000e+00  1.0000000000000000e+00
-5.0000000000000003e-02  2.9999999999999999e-01  1.0000000000000000e+00
5.0000000000000003e-02  0.0000000000000000e+00  1.0000000000000000e+00
5.0000000000000003e-02  2.9999999999999999e-01  1.0000000000000000e+00
5.0000000000000003e-02  0.0000000000000000e+00  7.9999999999999982e-01
5.0000000000000003e-02  2.9999999999999999e-01  7.9999999999999982e-01
5.0000000000000003e-02  0.0000000000000000e+00  6.0000000000138687e-01
5.0000000000000003e-02  2.9999999999999999e-01  6.0000000000138687e-01
5.0000000000000003e-02  0.0000000000000000e+00  4.0000000000166441e-01
5.0000000000000003e-02  2.9999999999999999e-01  4.0000000000166441e-01
5.0000000000000003e-02  0.0000000000000000e+00  2.0000000000083221e-01
5.0000000000000003e-02  2.9999999999999999e-01  2.0000000000083221e-01
5.0000000000000003e-02  0.0000000000000000e+00  0.0000000000000000e+00
5.0000000000000003e-02  2.9999999999999999e-01  0.0000000000000000e+00

CELLS 0 0


CELL_TYPES 0


POINT_DATA 24

VECTORS VertexNormals float

0.0000000000000000e+00 0.0000000000000000e+00 0.0000000000000000e+00 
0.0000000000000000e+00 0.0000000000000000e+00 0.0000000000000000e+00 
0.0000000000000000e+00 0.0000000000000000e+00 0.0000000000000000e+00 
0.0000000000000000e+00 0.0000000000000000e+00 0.0000000000000000e+00 
0.0000000000000000e+00 0.0000000000000000e+00 0.0000000000000000e+00 
0.0000000000000000e+00 0.0000000000000000e+00 0.0000000000000000e+00 
0.0000000000000000e+00 0.0000000000000000e+00 0.0000000000000000e+00 
0.0000000000000000e+00 0.0000000000000000e+00 0.0000000000000000e+00 
0.0000000000000000e+00 0.0000000000000000e+00 0.0000000000000000e+00 
0.0000000000000000e+00 0.0000000000000000e+00 0.0000000000000000e+00 
0.0000000000000000e+00 0.0000000000000000e+00 0.0000000000000000e+00 
0.0000000000000000e+00 0.0000000000000000e+00 0.0000000000000000e+00 
0.0000000000000000e+00 0.0000000000000000e+00 0.0000000000000000e+00 
0.0000000000000000e+00 0.0000000000000000e+00 0.0000000000000000e+00 
0.0000000000000000e+00 0.0000000000000000e+00 0.0000000000000000e+00 
0.0000000000000000e+00 0.0000000000000000e+00 0.0000000000000000e+00 
0.0000000000000000e+00 0.0000000000000000e+00 0.0000000000000000e+00 
0.0000000000000000e+00 0.0000000000000000e+00 0.0000000000000000e+00 
0.0000000000000000e+00 0.0000000000000000e+00 0.0000000000000000e+00 
0.0000000000000000e+00 0.0000000000000000e+00 0.0000000000000000e+00 
0.0000000000000000e+00 0.0000000000000000e+00 0.0000000000000000e+00 
0.0000000000000000e+00 0.0000000000000000e+00 0.0000000000000000e+00 
0.0000000000000000e+00 0.0000000000000000e+00 0.0000000000000000e+00 
0.0000000000000000e+00 0.0000000000000000e+00 0.0000000000000000e+00 

VECTORS Forces0 float
1.0573921975164817e+00 -7.2829929400818901e-06 -2.0088919243652140e-02 
2.6163183544033415e+00 -2.2048742069808077e-05 -1.6207042790827329e-02 
2.6309011851341344e+00 -2.2156864635384885e-05 -1.6214023823883261e-02 
1.0542976725399837e+00 -7.2624430056814238e-06 -2.0051805564272666e-02 
1.5838927371613720e+00 2.5312310803615057e-05 -5.8130222225164820e-02 
1.5520036827321446e+00 2.4752658398067985e-05 -5.7102052431463095e-02 
4.1378876476214987e+00 8.9100330014583885e-03 -1.2056872206254110e+00 
3.8487764054475391e+00 8.2907600475401848e-03 -1.0939333467855672e+00 
-3.8143466393889724e+00 -6.9779269470160388e-02 2.7492547377834402e+00 
-1.9705122120384542e+00 -3.6017027342597055e-02 1.4063372204699889e+00 
6.0163863737021750e-01 3.5003419087182325e-02 -1.3801827652966350e-01 
-1.5272528890371675e+00 -1.5344655604629620e-01 2.3144103968525425e+00 
5.3744641080817157e+00 -3.6430223237612958e+00 -1.8044355968115922e+00 
5.0722954874042225e-01 -3.4423546575903097e-01 -1.7201711324094562e-01 
-9.1330170732768767e-01 8.8887727937601149e-02 1.0539199156659690e-01 
-1.1583143107726750e+00 1.2769879740784740e-01 5.7483116561049152e-01 
6.1240493925721429e-01 9.2138258641766139e-04 -1.6755489117280092e-01 
1.2516173026938202e+00 1.8594935513966114e-03 -3.3453670127788893e-01 
1.0967594175585711e+00 -1.5222637380124524e-04 -3.2019739297525662e-02 
9.8230168145610797e-01 -1.3643245532017110e-04 -2.8981112649798385e-02 
3.7580911967272779e-01 -2.3823061353103132e-05 -1.7669087975085698e-03 
4.0211985382046694e-01 -2.5490544930996328e-05 -1.8937698647787438e-03 
4.0157679906363075e-01 -8.5364397540782914e-06 -6.9874063412292140e-03 
3.9220545534087053e-01 -8.3387771418833424e-06 -6.8493586409975960e-03 

VECTORS DisplacementDeltas0 float
0.0000000000000000e+00 0.0000000000000000e+00 0.0000000000000000e+00 
-5.8402968680556187e-04 0.0000000000000000e+00 2.7464306337117032e-04 
-6.7264462483893907e-04 0.0000000000000000e+00 1.9975348234967593e-04 
0.0000000000000000e+00 0.0000000000000000e+00 0.0000000000000000e+00 
-1.0312499340842936e-03 0.0000000000000000e+00 9.2696894754972967e-04 
-9.6408157987011491e-04 0.0000000000000000e+00 9.6825149835311100e-04 
3.8030243822870435e-03 0.0000000000000000e+00 3.4446788006076250e-03 
3.7183171344447145e-03 0.0000000000000000e+00 3.2618404448794044e-03 
2.0553383033208840e-02 0.0000000000000000e+00 -2.6148966552528453e-03 
1.9973542688056754e-02 0.0000000000000000e+00 -1.8734429000534401e-03 
3.7008420024314398e-02 0.0000000000000000e+00 -1.8317720638167893e-02 
3.6616665624831901e-02 0.0000000000000000e+00 -1.7882875859288428e-02 
1.2447292255066029e-318 0.0000000000000000e+00 0.0000000000000000e+00 
2.8247391030513339e-02 0.0000000000000000e+00 -2.4914652322443675e-02 
1.3394344737363666e-02 0.0000000000000000e+00 -9.8703641468040684e-03 
1.3343983555137832e-02 0.0000000000000000e+00 -9.2189134119357533e-03 
2.0918411788320218e-03 0.0000000000000000e+00 -1.2425945832220588e-03 
2.2134982549670045e-03 0.0000000000000000e+00 -1.1493948891888061e-03 
-1.2155083259975021e-03 0.0000000000000000e+00 6.9303748499397865e-04 
-1.1735143870539855e-03 0.0000000000000000e+00 5.2431290150385126e-04 
-6.7746272039142120e-04 0.0000000000000000e+00 5.8626543352266014e-04 
-7.8682934666908489e-04 0.0000000000000000e+00 6.7119800044701213e-04 
0.0000000000000000e+00 0.0000000000000000e+00 0.0000000000000000e+00 
0.0000000000000000e+00 0.0000000000000000e+00 0.0000000000000000e+00 

