# vtk DataFile Version 2.0

ASCII

DATASET UNSTRUCTURED_GRID

POINTS 24 float 

-5.0000000000000003e-02  0.0000000000000000e+00  0.0000000000000000e+00
-5.0000000000000003e-02  0.0000000000000000e+00  1.9999999999955789e-01
-5.0000000000000003e-02  2.9999999999999999e-01  1.9999999999955789e-01
-5.0000000000000003e-02  2.9999999999999999e-01  0.0000000000000000e+00
-5.0000000000000003e-02  0.0000000000000000e+00  3.9999999999897490e-01
-5.0000000000000003e-02  2.9999999999999999e-01  3.9999999999897490e-01
-5.0000000000000003e-02  0.0000000000000000e+00  5.9999999999894682e-01
-5.0000000000000003e-02  2.9999999999999999e-01  5.9999999999894682e-01
-5.0000000000000003e-02  0.0000000000000000e+00  7.9999999999947335e-01
-5.0000000000000003e-02  2.9999999999999999e-01  7.9999999999947335e-01
-5.0000000000000003e-02  0.0000000000000000e+00  1.0000000000000000e+00
-5.0000000000000003e-02  2.9999999999999999e-01  1.0000000000000000e+00
5.0000000000000003e-02  0.0000000000000000e+00  1.0000000000000000e+00
5.0000000000000003e-02  2.9999999999999999e-01  1.0000000000000000e+00
5.0000000000000003e-02  0.0000000000000000e+00  7.9999999999999982e-01
5.0000000000000003e-02  2.9999999999999999e-01  7.9999999999999982e-01
5.0000000000000003e-02  0.0000000000000000e+00  6.0000000000138687e-01
5.0000000000000003e-02  2.9999999999999999e-01  6.0000000000138687e-01
5.0000000000000003e-02  0.0000000000000000e+00  4.0000000000166441e-01
5.0000000000000003e-02  2.9999999999999999e-01  4.0000000000166441e-01
5.0000000000000003e-02  0.0000000000000000e+00  2.0000000000083221e-01
5.0000000000000003e-02  2.9999999999999999e-01  2.0000000000083221e-01
5.0000000000000003e-02  0.0000000000000000e+00  0.0000000000000000e+00
5.0000000000000003e-02  2.9999999999999999e-01  0.0000000000000000e+00

CELLS 0 0


CELL_TYPES 0


POINT_DATA 24

VECTORS VertexNormals float

0.0000000000000000e+00 0.0000000000000000e+00 0.0000000000000000e+00 
0.0000000000000000e+00 0.0000000000000000e+00 0.0000000000000000e+00 
0.0000000000000000e+00 0.0000000000000000e+00 0.0000000000000000e+00 
0.0000000000000000e+00 0.0000000000000000e+00 0.0000000000000000e+00 
0.0000000000000000e+00 0.0000000000000000e+00 0.0000000000000000e+00 
0.0000000000000000e+00 0.0000000000000000e+00 0.0000000000000000e+00 
0.0000000000000000e+00 0.0000000000000000e+00 0.0000000000000000e+00 
0.0000000000000000e+00 0.0000000000000000e+00 0.0000000000000000e+00 
0.0000000000000000e+00 0.0000000000000000e+00 0.0000000000000000e+00 
0.0000000000000000e+00 0.0000000000000000e+00 0.0000000000000000e+00 
0.0000000000000000e+00 0.0000000000000000e+00 0.0000000000000000e+00 
0.0000000000000000e+00 0.0000000000000000e+00 0.0000000000000000e+00 
0.0000000000000000e+00 0.0000000000000000e+00 0.0000000000000000e+00 
0.0000000000000000e+00 0.0000000000000000e+00 0.0000000000000000e+00 
0.0000000000000000e+00 0.0000000000000000e+00 0.0000000000000000e+00 
0.0000000000000000e+00 0.0000000000000000e+00 0.0000000000000000e+00 
0.0000000000000000e+00 0.0000000000000000e+00 0.0000000000000000e+00 
0.0000000000000000e+00 0.0000000000000000e+00 0.0000000000000000e+00 
0.0000000000000000e+00 0.0000000000000000e+00 0.0000000000000000e+00 
0.0000000000000000e+00 0.0000000000000000e+00 0.0000000000000000e+00 
0.0000000000000000e+00 0.0000000000000000e+00 0.0000000000000000e+00 
0.0000000000000000e+00 0.0000000000000000e+00 0.0000000000000000e+00 
0.0000000000000000e+00 0.0000000000000000e+00 0.0000000000000000e+00 
0.0000000000000000e+00 0.0000000000000000e+00 0.0000000000000000e+00 

VECTORS Forces0 float
1.2808619674532589e+00 -4.3884391897489221e-05 3.1466589875958344e-02 
5.2412258224452852e+00 -8.5680720093066676e-04 -1.2644689413808989e+00 
5.4230360504532928e+00 -8.8655076086307789e-04 -1.3090006474053728e+00 
1.2457227337484535e+00 -4.2680901200651368e-05 3.0498886805588349e-02 
-8.0921230690363866e-01 -5.4618659036807858e-04 1.2595809636845998e+00 
-4.4647909403855934e-01 -3.0010176007903833e-04 6.9268235500553210e-01 
2.5722067282449057e+00 -4.1834087835984628e-02 5.2538761787181922e+00 
3.0425151537498323e+00 -5.0666549614767444e-02 6.3752616480914481e+00 
-8.1962705527592856e+00 1.8669802420319079e-01 -3.8175773807656457e+00 
-1.7806440611261456e+00 4.0529776752516636e-02 -8.3010314884709002e-01 
1.5545701235702360e+01 2.6216955881753230e+00 1.0453095298806515e+01 
8.5428258731885004e-02 1.9022639049049854e+00 3.2490441263287400e+00 
-6.8493879118878453e-01 -5.5583418177043953e-01 -4.9876773584788214e-01 
4.2762250160118658e+00 3.2251672342663391e+00 3.0359447477341361e+00 
3.7539924964655760e+00 2.7952646983721957e-01 1.4787796965830622e+00 
5.9011894257146080e+00 -1.7139959114598744e+00 2.3022108112559332e+00 
5.1530373714071507e+00 -5.3651169812630947e-02 9.0881576026979811e+00 
3.5055620407243784e+00 -3.7146460124310381e-02 6.3546249412818847e+00 
-2.5650623733047788e+00 6.7827438377072470e-04 3.5835446174221168e+00 
-2.6034586364612848e+00 6.8948535410414259e-04 3.6362129728282513e+00 
-7.1942910627848082e+00 1.5372481065972763e-03 1.1612390511768751e+00 
-7.0898773687234602e+00 1.5151518980434449e-03 1.1457619243914299e+00 
-3.6424954271540386e+00 1.5460820134542564e-04 -2.9319829423045302e-01 
-3.6117972733307200e+00 1.5332045347546850e-04 -2.9033285128019648e-01 

VECTORS DisplacementDeltas0 float
0.0000000000000000e+00 0.0000000000000000e+00 0.0000000000000000e+00 
1.0707453077605997e-02 0.0000000000000000e+00 2.5493247940012315e-03 
1.0743997104981640e-02 0.0000000000000000e+00 2.5130088324500019e-03 
0.0000000000000000e+00 0.0000000000000000e+00 0.0000000000000000e+00 
3.6607053372062243e-02 0.0000000000000000e+00 -1.1958786001304046e-02 
3.6512608522182549e-02 0.0000000000000000e+00 -1.1971632054735032e-02 
3.5048107110456111e-02 0.0000000000000000e+00 -5.6145996965247018e-02 
3.5121336605323655e-02 0.0000000000000000e+00 -5.5909207839394320e-02 
2.0261537757056969e-03 0.0000000000000000e+00 -7.3729137609987394e-02 
1.4041739914329443e-03 0.0000000000000000e+00 -7.4674890038886832e-02 
-2.3506327045569042e-02 0.0000000000000000e+00 -7.7854851815397585e-02 
-2.2528800607080568e-02 0.0000000000000000e+00 -7.5978047421080275e-02 
-1.8612836262648113e-318 0.0000000000000000e+00 0.0000000000000000e+00 
-2.4132464491392031e-02 0.0000000000000000e+00 -6.6900080222501490e-02 
-2.4864636355528824e-04 0.0000000000000000e+00 -6.3231956883253754e-02 
-1.4538147054356521e-03 0.0000000000000000e+00 -6.3945538186160500e-02 
2.3084089962553872e-02 0.0000000000000000e+00 -4.7742491336608267e-02 
2.2850557112296027e-02 0.0000000000000000e+00 -4.7536243306022213e-02 
2.5561462388194022e-02 0.0000000000000000e+00 -1.8668645709161550e-02 
2.5600282882099375e-02 0.0000000000000000e+00 -1.8665199717894120e-02 
9.2454743659943928e-03 0.0000000000000000e+00 -3.7371135958757153e-03 
9.2474173191764673e-03 0.0000000000000000e+00 -3.8234369775095988e-03 
0.0000000000000000e+00 0.0000000000000000e+00 0.0000000000000000e+00 
0.0000000000000000e+00 0.0000000000000000e+00 0.0000000000000000e+00 

