# vtk DataFile Version 2.0

ASCII

DATASET UNSTRUCTURED_GRID

POINTS 24 float 

-5.0000000000000003e-02  0.0000000000000000e+00  0.0000000000000000e+00
-5.0000000000000003e-02  0.0000000000000000e+00  1.9999999999955789e-01
-5.0000000000000003e-02  2.9999999999999999e-01  1.9999999999955789e-01
-5.0000000000000003e-02  2.9999999999999999e-01  0.0000000000000000e+00
-5.0000000000000003e-02  0.0000000000000000e+00  3.9999999999897490e-01
-5.0000000000000003e-02  2.9999999999999999e-01  3.9999999999897490e-01
-5.0000000000000003e-02  0.0000000000000000e+00  5.9999999999894682e-01
-5.0000000000000003e-02  2.9999999999999999e-01  5.9999999999894682e-01
-5.0000000000000003e-02  0.0000000000000000e+00  7.9999999999947335e-01
-5.0000000000000003e-02  2.9999999999999999e-01  7.9999999999947335e-01
-5.0000000000000003e-02  0.0000000000000000e+00  1.0000000000000000e+00
-5.0000000000000003e-02  2.9999999999999999e-01  1.0000000000000000e+00
5.0000000000000003e-02  0.0000000000000000e+00  1.0000000000000000e+00
5.0000000000000003e-02  2.9999999999999999e-01  1.0000000000000000e+00
5.0000000000000003e-02  0.0000000000000000e+00  7.9999999999999982e-01
5.0000000000000003e-02  2.9999999999999999e-01  7.9999999999999982e-01
5.0000000000000003e-02  0.0000000000000000e+00  6.0000000000138687e-01
5.0000000000000003e-02  2.9999999999999999e-01  6.0000000000138687e-01
5.0000000000000003e-02  0.0000000000000000e+00  4.0000000000166441e-01
5.0000000000000003e-02  2.9999999999999999e-01  4.0000000000166441e-01
5.0000000000000003e-02  0.0000000000000000e+00  2.0000000000083221e-01
5.0000000000000003e-02  2.9999999999999999e-01  2.0000000000083221e-01
5.0000000000000003e-02  0.0000000000000000e+00  0.0000000000000000e+00
5.0000000000000003e-02  2.9999999999999999e-01  0.0000000000000000e+00

CELLS 0 0


CELL_TYPES 0


POINT_DATA 24

VECTORS VertexNormals float

0.0000000000000000e+00 0.0000000000000000e+00 0.0000000000000000e+00 
0.0000000000000000e+00 0.0000000000000000e+00 0.0000000000000000e+00 
0.0000000000000000e+00 0.0000000000000000e+00 0.0000000000000000e+00 
0.0000000000000000e+00 0.0000000000000000e+00 0.0000000000000000e+00 
0.0000000000000000e+00 0.0000000000000000e+00 0.0000000000000000e+00 
0.0000000000000000e+00 0.0000000000000000e+00 0.0000000000000000e+00 
0.0000000000000000e+00 0.0000000000000000e+00 0.0000000000000000e+00 
0.0000000000000000e+00 0.0000000000000000e+00 0.0000000000000000e+00 
0.0000000000000000e+00 0.0000000000000000e+00 0.0000000000000000e+00 
0.0000000000000000e+00 0.0000000000000000e+00 0.0000000000000000e+00 
0.0000000000000000e+00 0.0000000000000000e+00 0.0000000000000000e+00 
0.0000000000000000e+00 0.0000000000000000e+00 0.0000000000000000e+00 
0.0000000000000000e+00 0.0000000000000000e+00 0.0000000000000000e+00 
0.0000000000000000e+00 0.0000000000000000e+00 0.0000000000000000e+00 
0.0000000000000000e+00 0.0000000000000000e+00 0.0000000000000000e+00 
0.0000000000000000e+00 0.0000000000000000e+00 0.0000000000000000e+00 
0.0000000000000000e+00 0.0000000000000000e+00 0.0000000000000000e+00 
0.0000000000000000e+00 0.0000000000000000e+00 0.0000000000000000e+00 
0.0000000000000000e+00 0.0000000000000000e+00 0.0000000000000000e+00 
0.0000000000000000e+00 0.0000000000000000e+00 0.0000000000000000e+00 
0.0000000000000000e+00 0.0000000000000000e+00 0.0000000000000000e+00 
0.0000000000000000e+00 0.0000000000000000e+00 0.0000000000000000e+00 
0.0000000000000000e+00 0.0000000000000000e+00 0.0000000000000000e+00 
0.0000000000000000e+00 0.0000000000000000e+00 0.0000000000000000e+00 

VECTORS Forces0 float
1.3830182192094342e+00 -2.6885164894008537e-05 8.5432783421532127e-02 
5.5654061740119749e+00 -7.0689687396723619e-04 -6.4742646698297768e-01 
5.6354502147632006e+00 -7.1576937493475772e-04 -6.5654539227088626e-01 
1.3469486542525222e+00 -2.6183151093965193e-05 8.3137725476772936e-02 
2.6420952843240939e+00 1.1996160577646638e-04 -2.4032634178270942e+00 
3.3039896025489011e+00 1.4811684187361813e-04 -2.9994691622787908e+00 
9.4102282642597623e-01 -4.9001165905394085e-02 6.8111554901262696e+00 
9.4229601334752811e-01 -5.3501183590579794e-02 7.4460965322876573e+00 
-3.5830824540881516e+00 1.2269046654564819e-01 -3.1303216375199878e+00 
2.5200382440300966e+00 -8.6343544765668190e-02 2.2060300169379765e+00 
1.4949148722268172e+01 2.9701001855211495e+00 1.1700531224038865e+01 
-4.6480876293399903e-01 9.9796002164912745e-01 1.1996229122542115e+00 
-8.3302623688062660e-01 -1.2126071917247416e+00 -1.0093279080872652e+00 
3.4885218612344580e+00 4.7287076233104441e+00 4.0900732786115528e+00 
3.2728729516080675e+00 -2.3666167145326357e-02 8.1858499824349884e-01 
4.5011150867500405e+00 -4.6371436239763397e-01 5.8131632014780577e+00 
1.0822735344276009e+00 -3.2698235223831924e-02 5.9868879125619703e+00 
3.2269198761443302e-01 -1.0426245349754512e-02 1.9369233169010689e+00 
-1.8487803960477571e+00 1.4646409817349988e-03 1.4859549158677832e+00 
-1.8514501108260841e+00 1.4679503229931645e-03 1.4907158858963465e+00 
-3.3098714720788891e+00 3.0773553830712750e-04 1.9397842329723181e-01 
-3.2395530564330079e+00 3.0122858108459744e-04 1.9053441769428139e-01 
-2.0441235767013652e+00 1.2035147290598084e-05 -2.1292530777884411e-01 
-2.0320975838796169e+00 1.1964296002955951e-05 -2.1164182926958916e-01 

VECTORS DisplacementDeltas0 float
0.0000000000000000e+00 0.0000000000000000e+00 0.0000000000000000e+00 
1.4936829484018714e-03 0.0000000000000000e+00 6.5996486481263092e-03 
1.5213174749477238e-03 0.0000000000000000e+00 6.5763322979733221e-03 
0.0000000000000000e+00 0.0000000000000000e+00 0.0000000000000000e+00 
2.7304095899592578e-02 0.0000000000000000e+00 1.9126785536159180e-03 
2.7312272540305788e-02 0.0000000000000000e+00 1.9263208848773229e-03 
4.1161377220487960e-02 0.0000000000000000e+00 -3.8949972905608546e-02 
4.1352750237661468e-02 0.0000000000000000e+00 -3.8657963876381554e-02 
1.2655497588385245e-02 0.0000000000000000e+00 -6.9306091513484547e-02 
1.3210031459086058e-02 0.0000000000000000e+00 -7.0577943611955185e-02 
-1.3658834475817228e-02 0.0000000000000000e+00 -8.1084785158647033e-02 
-1.4261842190850693e-02 0.0000000000000000e+00 -8.0918966405703341e-02 
-8.8813240496422479e-319 0.0000000000000000e+00 0.0000000000000000e+00 
-1.8386179499031485e-02 0.0000000000000000e+00 -6.9448085217643063e-02 
6.8968897088456660e-03 0.0000000000000000e+00 -5.8245375988681070e-02 
7.0596185930378030e-03 0.0000000000000000e+00 -5.9247899471117665e-02 
2.6752109980540381e-02 0.0000000000000000e+00 -3.4476386256701866e-02 
2.6619277109431766e-02 0.0000000000000000e+00 -3.4381085804599656e-02 
1.8318292595119273e-02 0.0000000000000000e+00 -6.8149159333290073e-03 
1.8235046793778333e-02 0.0000000000000000e+00 -6.8296909078196903e-03 
7.0633546864882005e-05 0.0000000000000000e+00 1.5742599271128185e-03 
6.7312729395882162e-05 0.0000000000000000e+00 1.6074179979899232e-03 
0.0000000000000000e+00 0.0000000000000000e+00 0.0000000000000000e+00 
0.0000000000000000e+00 0.0000000000000000e+00 0.0000000000000000e+00 

