# vtk DataFile Version 2.0

ASCII

DATASET UNSTRUCTURED_GRID

POINTS 24 double 

-5.0000000000000003e-02  0.0000000000000000e+00  0.0000000000000000e+00
-5.0000000000000003e-02  0.0000000000000000e+00  1.9999999999955789e-01
-5.0000000000000003e-02  2.9999999999999999e-01  1.9999999999955789e-01
-5.0000000000000003e-02  2.9999999999999999e-01  0.0000000000000000e+00
-5.0000000000000003e-02  0.0000000000000000e+00  3.9999999999897490e-01
-5.0000000000000003e-02  2.9999999999999999e-01  3.9999999999897490e-01
-5.0000000000000003e-02  0.0000000000000000e+00  5.9999999999894682e-01
-5.0000000000000003e-02  2.9999999999999999e-01  5.9999999999894682e-01
-5.0000000000000003e-02  0.0000000000000000e+00  7.9999999999947335e-01
-5.0000000000000003e-02  2.9999999999999999e-01  7.9999999999947335e-01
-5.0000000000000003e-02  0.0000000000000000e+00  1.0000000000000000e+00
-5.0000000000000003e-02  2.9999999999999999e-01  1.0000000000000000e+00
5.0000000000000003e-02  0.0000000000000000e+00  1.0000000000000000e+00
5.0000000000000003e-02  2.9999999999999999e-01  1.0000000000000000e+00
5.0000000000000003e-02  0.0000000000000000e+00  7.9999999999999982e-01
5.0000000000000003e-02  2.9999999999999999e-01  7.9999999999999982e-01
5.0000000000000003e-02  0.0000000000000000e+00  6.0000000000138687e-01
5.0000000000000003e-02  2.9999999999999999e-01  6.0000000000138687e-01
5.0000000000000003e-02  0.0000000000000000e+00  4.0000000000166441e-01
5.0000000000000003e-02  2.9999999999999999e-01  4.0000000000166441e-01
5.0000000000000003e-02  0.0000000000000000e+00  2.0000000000083221e-01
5.0000000000000003e-02  2.9999999999999999e-01  2.0000000000083221e-01
5.0000000000000003e-02  0.0000000000000000e+00  0.0000000000000000e+00
5.0000000000000003e-02  2.9999999999999999e-01  0.0000000000000000e+00

CELLS 0 0


CELL_TYPES 0


POINT_DATA 24

VECTORS VertexNormals double

0.0000000000000000e+00 0.0000000000000000e+00 0.0000000000000000e+00 
0.0000000000000000e+00 0.0000000000000000e+00 0.0000000000000000e+00 
0.0000000000000000e+00 0.0000000000000000e+00 0.0000000000000000e+00 
0.0000000000000000e+00 0.0000000000000000e+00 0.0000000000000000e+00 
0.0000000000000000e+00 0.0000000000000000e+00 0.0000000000000000e+00 
0.0000000000000000e+00 0.0000000000000000e+00 0.0000000000000000e+00 
0.0000000000000000e+00 0.0000000000000000e+00 0.0000000000000000e+00 
0.0000000000000000e+00 0.0000000000000000e+00 0.0000000000000000e+00 
0.0000000000000000e+00 0.0000000000000000e+00 0.0000000000000000e+00 
0.0000000000000000e+00 0.0000000000000000e+00 0.0000000000000000e+00 
0.0000000000000000e+00 0.0000000000000000e+00 0.0000000000000000e+00 
0.0000000000000000e+00 0.0000000000000000e+00 0.0000000000000000e+00 
0.0000000000000000e+00 0.0000000000000000e+00 0.0000000000000000e+00 
0.0000000000000000e+00 0.0000000000000000e+00 0.0000000000000000e+00 
0.0000000000000000e+00 0.0000000000000000e+00 0.0000000000000000e+00 
0.0000000000000000e+00 0.0000000000000000e+00 0.0000000000000000e+00 
0.0000000000000000e+00 0.0000000000000000e+00 0.0000000000000000e+00 
0.0000000000000000e+00 0.0000000000000000e+00 0.0000000000000000e+00 
0.0000000000000000e+00 0.0000000000000000e+00 0.0000000000000000e+00 
0.0000000000000000e+00 0.0000000000000000e+00 0.0000000000000000e+00 
0.0000000000000000e+00 0.0000000000000000e+00 0.0000000000000000e+00 
0.0000000000000000e+00 0.0000000000000000e+00 0.0000000000000000e+00 
0.0000000000000000e+00 0.0000000000000000e+00 0.0000000000000000e+00 
0.0000000000000000e+00 0.0000000000000000e+00 0.0000000000000000e+00 

VECTORS Forces0 double
1.3242096812105311e+00 4.1164406529587453e-05 -3.1473772571524568e-02 
3.0280160555579916e+00 2.5160998041124678e-04 -3.1383760331748667e-02 
3.0270193756506822e+00 2.5154296677894336e-04 -3.1458260757243013e-02 
1.3229577907245080e+00 4.1124237032791962e-05 -3.1321220626030002e-02 
1.6564878192975403e+00 -1.2781604957697035e-04 -2.6252006313249799e-02 
1.6456344162966181e+00 -1.2691280702865077e-04 -2.6329459468443311e-02 
3.3388286965745801e+00 4.5448422328692806e-03 -5.7019406543020068e-01 
3.1602858135316234e+00 4.3054052457325940e-03 -5.2494791131530316e-01 
-9.8105500176797122e-01 -1.0649283424824610e-02 4.1981575478056904e-01 
2.5588769757789293e-01 2.7789336552827269e-03 -1.0864871719286613e-01 
-2.4388165279729268e-01 -5.6949513237735984e-03 9.3205072777825138e-02 
-1.7784853487741394e+00 -5.7825958677796677e-02 1.8541932766296259e+00 
7.3760389826873176e+00 -3.0125427096247828e+00 -4.0108421602431471e-01 
3.2359814835901908e+00 -1.3235344203046642e+00 -1.8653390476295972e-01 
-1.5479083496402812e+00 9.9060634255266691e-02 1.2075023224919269e-01 
-1.5134348505401758e+00 1.0258856490080009e-01 4.6437023760428536e-01 
1.3733001568384773e+00 1.3902027771846065e-03 -2.2101133198270673e-01 
1.7136427586978851e+00 1.7199387612730327e-03 -2.6832947285613434e-01 
1.2185011517236908e+00 -1.9515963381892788e-04 -1.6213848611216195e-02 
1.1576921637139350e+00 -1.8542405882524140e-04 -1.5732155496650906e-02 
7.3314006427169742e-01 5.9892257966004388e-05 -7.2437558317518169e-03 
7.4520510368877968e-01 6.0887432712820092e-05 -7.4011516915065733e-03 
5.8001278847872784e-01 1.9593420953570301e-05 -1.3179332074620877e-02 
5.7394758549765768e-01 1.9384764495135474e-05 -1.2983192002348050e-02 

VECTORS DisplacementDeltas0 double
0.0000000000000000e+00 0.0000000000000000e+00 0.0000000000000000e+00 
-1.4085753586462251e-04 0.0000000000000000e+00 -1.5822153614621646e-04 
-5.5274686332998802e-05 0.0000000000000000e+00 -2.0544841548825762e-04 
0.0000000000000000e+00 0.0000000000000000e+00 0.0000000000000000e+00 
-3.3685162609341842e-04 0.0000000000000000e+00 2.3638520458925529e-04 
-4.0484145115786234e-04 0.0000000000000000e+00 2.4669614881644536e-04 
2.0221702602935352e-03 0.0000000000000000e+00 2.0254645102546916e-03 
1.9494444278528376e-03 0.0000000000000000e+00 1.8188429356054063e-03 
1.3562789978692563e-02 0.0000000000000000e+00 2.7973183189212384e-04 
1.3017368762587897e-02 0.0000000000000000e+00 4.7422920158567139e-04 
2.7705767667095836e-02 0.0000000000000000e+00 -7.1587038285355967e-03 
2.7369632461003046e-02 0.0000000000000000e+00 -6.9285748676975178e-03 
0.0000000000000000e+00 0.0000000000000000e+00 0.0000000000000000e+00 
2.3008874419396669e-02 0.0000000000000000e+00 -1.3817127388683681e-02 
1.0060975924102621e-02 0.0000000000000000e+00 -6.0184680898899001e-03 
9.8662484048216668e-03 0.0000000000000000e+00 -5.6315587512869858e-03 
1.3900224009693414e-03 0.0000000000000000e+00 -1.0206458423153825e-03 
1.4775469747955326e-03 0.0000000000000000e+00 -9.7056801166669040e-04 
-3.4803011779584517e-04 0.0000000000000000e+00 3.3584757664009040e-04 
-4.4818112483130477e-04 0.0000000000000000e+00 1.3177437516328475e-04 
-1.5394619897842257e-04 0.0000000000000000e+00 -5.3866961394229325e-05 
-1.2293321820122183e-04 0.0000000000000000e+00 -5.6669936450622906e-05 
0.0000000000000000e+00 0.0000000000000000e+00 0.0000000000000000e+00 
0.0000000000000000e+00 0.0000000000000000e+00 0.0000000000000000e+00 

