/*--------------------------------*- C++ -*----------------------------------*\
| =========                 |                                                 |
| \\      /  F ield         | OpenFOAM: The Open Source CFD Toolbox           |
|  \\    /   O peration     | Version:  5.x                                   |
|   \\  /    A nd           | Web:      www.OpenFOAM.org                      |
|    \\/     M anipulation  |                                                 |
\*---------------------------------------------------------------------------*/
FoamFile
{
    version     2.0;
    format      ascii;
    class       volVectorField;
    location    "4.5";
    object      cellDisplacement;
}
// * * * * * * * * * * * * * * * * * * * * * * * * * * * * * * * * * * * * * //

dimensions      [0 1 0 0 0 0 0];

internalField   nonuniform List<vector> 
2790
(
(0.00501334 4.76558e-06 0)
(0.0143854 1.38527e-05 0)
(0.0225375 2.22468e-05 0)
(0.0295693 3.02541e-05 0)
(0.03558 3.81377e-05 0)
(0.0406577 4.6129e-05 0)
(0.04488 5.44393e-05 0)
(0.0483153 6.32621e-05 0)
(0.0510243 7.27882e-05 0)
(0.0530602 8.32538e-05 0)
(0.054469 9.48516e-05 0)
(0.0552909 0.000107883 0)
(0.0555595 0.000122698 0)
(0.0553038 0.000139719 0)
(0.0545473 0.000159176 0)
(0.0533115 0.000181661 0)
(0.0516152 0.000207816 0)
(0.0494761 0.000238393 0)
(0.0469116 0.000274299 0)
(0.0439403 0.000316629 0)
(0.0405832 0.000366709 0)
(0.0368661 0.000426166 0)
(0.032822 0.000497033 0)
(0.028496 0.000581902 0)
(0.0239517 0.000684202 0)
(0.0192829 0.000808684 0)
(0.0146354 0.000962079 0)
(0.0102292 0.00115067 0)
(0.00643286 0.0013763 0)
(0.00408509 0.00161306 0)
(0.00501748 1.428e-05 0)
(0.0143981 4.15099e-05 0)
(0.0225594 6.66624e-05 0)
(0.0296014 9.06522e-05 0)
(0.0356235 0.000114266 0)
(0.0407143 0.000138196 0)
(0.0449516 0.000163076 0)
(0.048404 0.000189482 0)
(0.0511328 0.000217969 0)
(0.0531918 0.000249273 0)
(0.0546276 0.000283914 0)
(0.0554811 0.000322807 0)
(0.0557869 0.000366979 0)
(0.0555752 0.000417822 0)
(0.0548701 0.000475752 0)
(0.0536944 0.000542657 0)
(0.0520686 0.000620401 0)
(0.0500122 0.000711181 0)
(0.0475451 0.000817632 0)
(0.0446887 0.000942921 0)
(0.0414679 0.00109084 0)
(0.037913 0.00126599 0)
(0.0340631 0.00147397 0)
(0.0299706 0.00172167 0)
(0.025708 0.00201762 0)
(0.0213789 0.00237257 0)
(0.0171623 0.00280301 0)
(0.0133231 0.00331685 0)
(0.0102732 0.00390015 0)
(0.00877887 0.00445035 0)
(0.00502631 2.37358e-05 0)
(0.014425 6.89969e-05 0)
(0.0226052 0.0001108 0)
(0.0296677 0.000150658 0)
(0.0357127 0.00018987 0)
(0.0408299 0.000229584 0)
(0.0450974 0.000270855 0)
(0.0485838 0.000314634 0)
(0.0513518 0.000361761 0)
(0.0534567 0.000413606 0)
(0.0549454 0.000470781 0)
(0.0558616 0.000534881 0)
(0.0562407 0.000607468 0)
(0.0561136 0.000690104 0)
(0.0555089 0.000784743 0)
(0.054451 0.00089395 0)
(0.0529632 0.00102056 0)
(0.0510685 0.00116798 0)
(0.0487912 0.0013403 0)
(0.0461587 0.00154239 0)
(0.0432024 0.00177995 0)
(0.0399614 0.00205971 0)
(0.0364861 0.00238961 0)
(0.0328436 0.00277885 0)
(0.0291253 0.00323769 0)
(0.0254443 0.00377825 0)
(0.021985 0.00440863 0)
(0.0190789 0.00512685 0)
(0.0171242 0.00588237 0)
(0.0166874 0.00651127 0)
(0.00503965 3.30805e-05 0)
(0.0144654 9.61596e-05 0)
(0.0226738 0.000154407 0)
(0.0297668 0.000209913 0)
(0.035846 0.000264472 0)
(0.0410023 0.000319671 0)
(0.0453148 0.000376998 0)
(0.0488515 0.000437776 0)
(0.0516775 0.000502904 0)
(0.0538484 0.000573971 0)
(0.0554146 0.00065256 0)
(0.0564228 0.000740542 0)
(0.0569098 0.000839789 0)
(0.0569083 0.0009521 0)
(0.0564509 0.00108081 0)
(0.0555653 0.00122881 0)
(0.0542791 0.00139971 0)
(0.0526198 0.00159779 0)
(0.0506176 0.00182815 0)
(0.0483077 0.00209678 0)
(0.0457304 0.00241035 0)
(0.0429354 0.0027765 0)
(0.0399859 0.00320372 0)
(0.036965 0.00370099 0)
(0.0339819 0.00427672 0)
(0.0311811 0.00493636 0)
(0.0287254 0.00567533 0)
(0.0269056 0.0064678 0)
(0.0261074 0.00723334 0)
(0.0266376 0.00779142 0)
(0.00505746 4.22579e-05 0)
(0.0145191 0.000122833 0)
(0.0227648 0.000197211 0)
(0.0298977 0.000268031 0)
(0.0360216 0.000337555 0)
(0.0412295 0.000407783 0)
(0.0456018 0.000480651 0)
(0.0492021 0.000557323 0)
(0.0520998 0.000639369 0)
(0.0543573 0.000728493 0)
(0.0560269 0.000827133 0)
(0.0571549 0.000937238 0)
(0.0577823 0.00106109 0)
(0.0579462 0.00120122 0)
(0.0576801 0.00136065 0)
(0.0570177 0.00154302 0)
(0.0559915 0.00175245 0)
(0.0546347 0.00199366 0)
(0.0529832 0.0022722 0)
(0.0510832 0.00259458 0)
(0.0489836 0.00296729 0)
(0.0467442 0.00339737 0)
(0.04444 0.00389189 0)
(0.042166 0.00445688 0)
(0.0400423 0.00509533 0)
(0.0382182 0.00580345 0)
(0.0368702 0.00656426 0)
(0.0361825 0.00733233 0)
(0.036441 0.00801627 0)
(0.0377185 0.00845425 0)
(0.00507959 5.12093e-05 0)
(0.0145857 0.000148843 0)
(0.022877 0.000238925 0)
(0.030059 0.000324608 0)
(0.0362372 0.000408581 0)
(0.0415082 0.000493205 0)
(0.0459483 0.000580444 0)
(0.0496258 0.000672088 0)
(0.052615 0.000770043 0)
(0.05498 0.000876411 0)
(0.0567746 0.000993516 0)
(0.0580478 0.00112372 0)
(0.0588447 0.00126965 0)
(0.0592083 0.00143436 0)
(0.0591721 0.00162029 0)
(0.0587771 0.00183168 0)
(0.0580617 0.00207278 0)
(0.0570651 0.00234823 0)
(0.0558261 0.00266331 0)
(0.0544071 0.00302485 0)
(0.0528629 0.00343775 0)
(0.0512613 0.00390723 0)
(0.0496855 0.00443737 0)
(0.0482362 0.00502951 0)
(0.0470342 0.00567974 0)
(0.0462181 0.00637493 0)
(0.0459347 0.00708741 0)
(0.0463155 0.00776696 0)
(0.0474581 0.00832395 0)
(0.0492502 0.0086365 0)
(0.00510584 5.98757e-05 0)
(0.0146644 0.000174016 0)
(0.0230094 0.000279263 0)
(0.0302485 0.000379242 0)
(0.0364894 0.000477024 0)
(0.0418291 0.000575224 0)
(0.0463509 0.000676014 0)
(0.0501225 0.000781768 0)
(0.053217 0.000894363 0)
(0.0557064 0.00101637 0)
(0.0576449 0.00115001 0)
(0.0590852 0.00129788 0)
(0.0600756 0.00146283 0)
(0.0606622 0.00164763 0)
(0.0608856 0.00185495 0)
(0.0607924 0.0020892 0)
(0.0604272 0.00235426 0)
(0.059837 0.00265422 0)
(0.0590664 0.00299433 0)
(0.0581812 0.00337991 0)
(0.0572456 0.00381356 0)
(0.0563331 0.00429805 0)
(0.05553 0.00483366 0)
(0.0549353 0.00541646 0)
(0.0546587 0.00603584 0)
(0.0548137 0.00667135 0)
(0.0555021 0.00728967 0)
(0.0567818 0.00784151 0)
(0.05859 0.00825396 0)
(0.0606861 0.00844868 0)
(0.00513588 6.82003e-05 0)
(0.0147543 0.000198184 0)
(0.0231601 0.00031795 0)
(0.0304637 0.000431554 0)
(0.0367751 0.000542409 0)
(0.0421931 0.000653394 0)
(0.0468053 0.000767011 0)
(0.05068 0.000885331 0)
(0.0538951 0.00101118 0)
(0.056524 0.00114711 0)
(0.0586222 0.00129508 0)
(0.0602473 0.00145789 0)
(0.0614497 0.00163818 0)
(0.0622758 0.0018382 0)
(0.0627815 0.0020617 0)
(0.0630152 0.0023123 0)
(0.0630272 0.00259338 0)
(0.0628727 0.00290839 0)
(0.0626107 0.00326196 0)
(0.062292 0.00365616 0)
(0.0619918 0.00409194 0)
(0.0617875 0.00456916 0)
(0.0617633 0.00508414 0)
(0.0620084 0.00562811 0)
(0.0626114 0.00618512 0)
(0.0636486 0.0067302 0)
(0.0651658 0.00722882 0)
(0.0671436 0.00763737 0)
(0.0693935 0.0079066 0)
(0.0716128 0.00799853 0)
(0.00516931 7.61301e-05 0)
(0.0148541 0.000221192 0)
(0.0233269 0.000354733 0)
(0.0307015 0.000481193 0)
(0.0370904 0.000604289 0)
(0.0425944 0.00072713 0)
(0.0473027 0.000852385 0)
(0.0512915 0.000982317 0)
(0.0546414 0.00112001 0)
(0.0574191 0.00126758 0)
(0.0596884 0.00142743 0)
(0.0615126 0.00160235 0)
(0.0629414 0.00179433 0)
(0.0640284 0.00200589 0)
(0.0648359 0.00224062 0)
(0.0654144 0.00250118 0)
(0.0658208 0.00279045 0)
(0.0661156 0.00311107 0)
(0.0663646 0.00346553 0)
(0.0666179 0.00385387 0)
(0.0669524 0.00427532 0)
(0.0674445 0.0047266 0)
(0.0681708 0.00520055 0)
(0.0692043 0.00568467 0)
(0.0706053 0.00615967 0)
(0.0724047 0.00659897 0)
(0.0745887 0.00696987 0)
(0.0770676 0.00723581 0)
(0.0795534 0.00736995 0)
(0.0817335 0.00736744 0)
(0.00520565 8.36163e-05 0)
(0.0149624 0.000242896 0)
(0.0235076 0.000389379 0)
(0.0309585 0.000527838 0)
(0.0374306 0.000662257 0)
(0.0430271 0.000795942 0)
(0.0478401 0.000931727 0)
(0.0519513 0.00107214 0)
(0.05544 0.0012199 0)
(0.0583755 0.00137711 0)
(0.0608285 0.00154662 0)
(0.0628575 0.00173037 0)
(0.064522 0.00193059 0)
(0.0658831 0.00214988 0)
(0.0670028 0.00239076 0)
(0.0679328 0.00265502 0)
(0.0687371 0.0029449 0)
(0.0694793 0.0032618 0)
(0.070225 0.0036062 0)
(0.0710334 0.00397676 0)
(0.0719766 0.00437052 0)
(0.0731255 0.00478168 0)
(0.0745451 0.00520052 0)
(0.0762875 0.0056125 0)
(0.0783841 0.00599712 0)
(0.0808155 0.00632894 0)
(0.0835281 0.00657839 0)
(0.0863102 0.0067187 0)
(0.0888522 0.0067378 0)
(0.0908464 0.00665758 0)
(0.00524433 9.06149e-05 0)
(0.0150775 0.000263167 0)
(0.0236992 0.000421679 0)
(0.0312307 0.000571207 0)
(0.0377904 0.000715957 0)
(0.0434844 0.000859395 0)
(0.0484075 0.00100447 0)
(0.0526454 0.00115382 0)
(0.0562783 0.00130998 0)
(0.0593794 0.00147517 0)
(0.0620188 0.00165173 0)
(0.064258 0.00184144 0)
(0.0661646 0.0020467 0)
(0.0678004 0.00226952 0)
(0.0692243 0.00251124 0)
(0.0704989 0.00277325 0)
(0.07169 0.00305693 0)
(0.0728626 0.00336234 0)
(0.0740855 0.00368817 0)
(0.075413 0.00403149 0)
(0.0769166 0.00438772 0)
(0.0786591 0.00474925 0)
(0.0806912 0.00510507 0)
(0.083041 0.00544059 0)
(0.0857234 0.00573594 0)
(0.0886789 0.00596971 0)
(0.0917661 0.00611898 0)
(0.0947012 0.00616704 0)
(0.0971866 0.00611236 0)
(0.0989178 0.00599487 0)
(0.00528471 9.70883e-05 0)
(0.0151975 0.000281897 0)
(0.0238987 0.000451458 0)
(0.0315135 0.000611064 0)
(0.0381639 0.000765097 0)
(0.0439585 0.00091714 0)
(0.0489949 0.00107021 0)
(0.0533618 0.00122697 0)
(0.0571411 0.00138981 0)
(0.0604086 0.00156087 0)
(0.0632357 0.00174219 0)
(0.0656889 0.00193548 0)
(0.0678354 0.0021425 0)
(0.0697385 0.00236465 0)
(0.071458 0.00260273 0)
(0.0730649 0.00285764 0)
(0.0746225 0.0031294 0)
(0.0761959 0.00341708 0)
(0.0778466 0.00371763 0)
(0.0796379 0.00402687 0)
(0.081634 0.00433927 0)
(0.0838871 0.00464612 0)
(0.0864345 0.00493606 0)
(0.0892953 0.00519616 0)
(0.0924429 0.00541093 0)
(0.0957834 0.00556418 0)
(0.0991107 0.0056445 0)
(0.10215 0.00564472 0)
(0.104573 0.00557076 0)
(0.106086 0.0054618 0)
(0.00532612 0.000103007 0)
(0.0153204 0.000298999 0)
(0.0241028 0.000478582 0)
(0.0318026 0.000647233 0)
(0.0385451 0.000809466 0)
(0.0444416 0.000968939 0)
(0.0495924 0.0011287 0)
(0.0540884 0.00129134 0)
(0.0580134 0.00145916 0)
(0.0614451 0.00163413 0)
(0.0644566 0.00181799 0)
(0.0671171 0.00201219 0)
(0.0694943 0.00221799 0)
(0.0716533 0.00243621 0)
(0.0736579 0.00266715 0)
(0.075575 0.00291072 0)
(0.0774684 0.00316594 0)
(0.0794003 0.00343069 0)
(0.0814272 0.00370129 0)
(0.0836189 0.00397264 0)
(0.0860267 0.00423809 0)
(0.0886931 0.00448891 0)
(0.0916448 0.00471474 0)
(0.0948853 0.00490451 0)
(0.0983512 0.00504895 0)
(0.101937 0.00514104 0)
(0.105449 0.00518089 0)
(0.108611 0.00517576 0)
(0.111083 0.00513763 0)
(0.11254 0.00508185 0)
(0.00536786 0.00010835 0)
(0.0154441 0.000314414 0)
(0.0243081 0.000502962 0)
(0.0320933 0.000679603 0)
(0.038928 0.000848939 0)
(0.0449262 0.00101467 0)
(0.0501905 0.00117981 0)
(0.0548137 0.0013469 0)
(0.0588811 0.00151807 0)
(0.0624721 0.00169509 0)
(0.065661 0.00187943 0)
(0.0685185 0.00207221 0)
(0.0711128 0.00227419 0)
(0.0735096 0.00248567 0)
(0.0757736 0.00270636 0)
(0.0779693 0.00293536 0)
(0.0801586 0.00317083 0)
(0.0824011 0.0034098 0)
(0.0847531 0.00364792 0)
(0.0872708 0.00387954 0)
(0.0899986 0.00409763 0)
(0.0929684 0.00429387 0)
(0.0961932 0.00445936 0)
(0.0996579 0.00458602 0)
(0.103302 0.00466899 0)
(0.107023 0.00470964 0)
(0.110656 0.00472048 0)
(0.113975 0.00472731 0)
(0.116668 0.00475883 0)
(0.118341 0.00480001 0)
(0.00540922 0.000113104 0)
(0.0155668 0.000328108 0)
(0.0245116 0.000524548 0)
(0.0323811 0.000708118 0)
(0.0393068 0.00088347 0)
(0.045405 0.0010543 0)
(0.0507801 0.00122358 0)
(0.0555267 0.00139374 0)
(0.0597312 0.00156675 0)
(0.0634741 0.00174415 0)
(0.0668305 0.00192714 0)
(0.0698716 0.00211647 0)
(0.0726655 0.00231248 0)
(0.0752778 0.00251496 0)
(0.077772 0.00272309 0)
(0.0802099 0.00293528 0)
(0.0826503 0.00314906 0)
(0.0851485 0.00336085 0)
(0.0877556 0.00356588 0)
(0.0905173 0.00375824 0)
(0.0934681 0.00393099 0)
(0.0966281 0.00407648 0)
(0.0999978 0.00418712 0)
(0.103551 0.00425683 0)
(0.107229 0.00428313 0)
(0.110941 0.00427035 0)
(0.11456 0.00423486 0)
(0.117936 0.00421389 0)
(0.12087 0.00427393 0)
(0.123034 0.00444337 0)
(0.00508314 -0.00151984 0)
(0.00897149 -0.00142729 0)
(0.0149684 -0.00125068 0)
(0.0219811 -0.00106981 0)
(0.0292188 -0.000909179 0)
(0.0361934 -0.000768723 0)
(0.0426606 -0.000648965 0)
(0.0485 -0.000548345 0)
(0.0536604 -0.000464407 0)
(0.0581286 -0.000394515 0)
(0.0619127 -0.000336123 0)
(0.0650183 -0.000286598 0)
(0.067464 -0.000246186 0)
(0.0692747 -0.000212253 0)
(0.0704644 -0.00018351 0)
(0.0710421 -0.000158922 0)
(0.0710121 -0.000138216 0)
(0.0703703 -0.000120171 0)
(0.0691077 -0.000104554 0)
(0.0672079 -9.09282e-05 0)
(0.0646516 -7.88024e-05 0)
(0.06141 -6.81081e-05 0)
(0.0574446 -5.85634e-05 0)
(0.0527158 -4.98559e-05 0)
(0.0471783 -4.17963e-05 0)
(0.0407838 -3.41919e-05 0)
(0.0334792 -2.68394e-05 0)
(0.0252065 -1.95298e-05 0)
(0.0159042 -1.20405e-05 0)
(0.00549763 -4.1133e-06 0)
(0.00952973 -0.00425871 0)
(0.0131079 -0.00400666 0)
(0.0185904 -0.00354608 0)
(0.0250824 -0.00306214 0)
(0.0318136 -0.0026141 0)
(0.0383339 -0.00222021 0)
(0.0444211 -0.00188203 0)
(0.0499472 -0.00159607 0)
(0.0548498 -0.00135613 0)
(0.0591058 -0.00115534 0)
(0.0627134 -0.000987133 0)
(0.0656771 -0.000845369 0)
(0.0680097 -0.000728121 0)
(0.0697239 -0.000628885 0)
(0.0708338 -0.000544534 0)
(0.0713454 -0.000471926 0)
(0.0712608 -0.000409998 0)
(0.0705747 -0.000356683 0)
(0.0692758 -0.000310588 0)
(0.0673471 -0.000270365 0)
(0.0647669 -0.000234748 0)
(0.0615038 -0.000203004 0)
(0.057521 -0.000174669 0)
(0.0527777 -0.000148755 0)
(0.0472274 -0.00012475 0)
(0.0408219 -0.000102086 0)
(0.0335079 -8.01565e-05 0)
(0.025227 -5.83392e-05 0)
(0.0159169 -3.59737e-05 0)
(0.00550203 -1.2291e-05 0)
(0.0171904 -0.00624701 0)
(0.0204316 -0.00593663 0)
(0.0251575 -0.00533909 0)
(0.0307628 -0.00467512 0)
(0.0366046 -0.00403458 0)
(0.042338 -0.0034577 0)
(0.0477482 -0.00295419 0)
(0.0527031 -0.00252258 0)
(0.0571284 -0.00215617 0)
(0.0609874 -0.00184647 0)
(0.0642659 -0.00158499 0)
(0.0669616 -0.00136464 0)
(0.069068 -0.00117861 0)
(0.0705949 -0.00102091 0)
(0.0715519 -0.00088642 0)
(0.0719395 -0.000770934 0)
(0.0717509 -0.000670836 0)
(0.0709782 -0.000584374 0)
(0.0696084 -0.000509631 0)
(0.0676216 -0.000444292 0)
(0.0649948 -0.000386596 0)
(0.0616919 -0.000335163 0)
(0.0576747 -0.000288712 0)
(0.052903 -0.000245993 0)
(0.0473266 -0.000206399 0)
(0.0408989 -0.000168983 0)
(0.0335662 -0.000132735 0)
(0.0252685 -9.66355e-05 0)
(0.0159422 -5.96006e-05 0)
(0.0055107 -2.0366e-05 0)
(0.0269618 -0.00749095 0)
(0.0298531 -0.00717592 0)
(0.0337408 -0.00655244 0)
(0.0382853 -0.00582161 0)
(0.0430611 -0.0050946 0)
(0.0478105 -0.00441971 0)
(0.0523491 -0.0038165 0)
(0.0565505 -0.0032892 0)
(0.0603341 -0.00283412 0)
(0.0636514 -0.00244401 0)
(0.0664758 -0.00211039 0)
(0.0687869 -0.00182591 0)
(0.0705759 -0.00158371 0)
(0.0718424 -0.00137687 0)
(0.0725839 -0.00119953 0)
(0.0727944 -0.00104716 0)
(0.0724583 -0.000914347 0)
(0.0715644 -0.000799111 0)
(0.070092 -0.000698465 0)
(0.0680201 -0.000610083 0)
(0.065321 -0.000531805 0)
(0.06196 -0.000462004 0)
(0.0578991 -0.000398616 0)
(0.0530878 -0.000340256 0)
(0.0474724 -0.00028569 0)
(0.0410121 -0.000234065 0)
(0.033652 -0.00018396 0)
(0.0253297 -0.000133984 0)
(0.0159799 -8.26594e-05 0)
(0.00552367 -2.82499e-05 0)
(0.0379337 -0.00813976 0)
(0.0404355 -0.00782871 0)
(0.0434893 -0.00723676 0)
(0.046956 -0.00652177 0)
(0.0506203 -0.00578966 0)
(0.0543091 -0.00509048 0)
(0.0578804 -0.00444946 0)
(0.061225 -0.00387645 0)
(0.0642638 -0.00337214 0)
(0.0669416 -0.00293244 0)
(0.0692201 -0.00255094 0)
(0.0710685 -0.00222032 0)
(0.0724715 -0.00193593 0)
(0.073416 -0.00169113 0)
(0.0738898 -0.00147945 0)
(0.0738769 -0.00129613 0)
(0.0733573 -0.00113622 0)
(0.0723099 -0.000996525 0)
(0.0707091 -0.000873518 0)
(0.0685293 -0.000764765 0)
(0.0657395 -0.000667961 0)
(0.0623028 -0.000581072 0)
(0.0581791 -0.000502117 0)
(0.0533179 -0.000429336 0)
(0.0476591 -0.00036117 0)
(0.0411567 -0.000296211 0)
(0.033762 -0.000232984 0)
(0.0254084 -0.000169788 0)
(0.0160283 -0.000104791 0)
(0.00554035 -3.58218e-05 0)
(0.0494026 -0.0083129 0)
(0.051468 -0.00801672 0)
(0.0537274 -0.00748639 0)
(0.0561793 -0.0068376 0)
(0.0587736 -0.00615639 0)
(0.0614131 -0.00548846 0)
(0.064002 -0.00485995 0)
(0.0664553 -0.00428435 0)
(0.0687033 -0.0037666 0)
(0.0706904 -0.0033064 0)
(0.0723725 -0.00290046 0)
(0.0737128 -0.00254396 0)
(0.0746811 -0.00223203 0)
(0.0752613 -0.00196042 0)
(0.0754281 -0.00172339 0)
(0.0751568 -0.00151621 0)
(0.0744224 -0.0013347 0)
(0.0731933 -0.00117456 0)
(0.0714411 -0.00103275 0)
(0.0691343 -0.000906574 0)
(0.0662378 -0.000793633 0)
(0.0627116 -0.000691669 0)
(0.0585151 -0.000598771 0)
(0.053588 -0.000512757 0)
(0.0478733 -0.000432085 0)
(0.0413277 -0.000354848 0)
(0.0338927 -0.00027937 0)
(0.0255021 -0.000203734 0)
(0.016086 -0.000125803 0)
(0.00556018 -4.30163e-05 0)
(0.0607899 -0.00811438 0)
(0.0624131 -0.00784837 0)
(0.0639443 -0.00739867 0)
(0.065483 -0.00684575 0)
(0.0670987 -0.00625098 0)
(0.0687572 -0.00565182 0)
(0.0704057 -0.00507212 0)
(0.0719867 -0.004527 0)
(0.0734448 -0.0040248 0)
(0.07473 -0.00356886 0)
(0.0757973 -0.00315915 0)
(0.0766061 -0.00279358 0)
(0.0771205 -0.00246911 0)
(0.0773108 -0.00218232 0)
(0.0771453 -0.00192907 0)
(0.0765918 -0.00170534 0)
(0.0756175 -0.00150734 0)
(0.0741875 -0.00133147 0)
(0.072267 -0.00117468 0)
(0.0698181 -0.00103421 0)
(0.0668025 -0.000907726 0)
(0.0631745 -0.000792768 0)
(0.0588915 -0.000687645 0)
(0.0538926 -0.000590173 0)
(0.0481174 -0.000498025 0)
(0.0415213 -0.000409539 0)
(0.0340408 -0.000322762 0)
(0.0256081 -0.000235562 0)
(0.0161511 -0.000145536 0)
(0.00558257 -4.9779e-05 0)
(0.0716754 -0.00765123 0)
(0.0728719 -0.00742265 0)
(0.0737609 -0.00706554 0)
(0.0745104 -0.00662509 0)
(0.075266 -0.00613655 0)
(0.0760452 -0.00562784 0)
(0.0768313 -0.00511945 0)
(0.0775953 -0.00462705 0)
(0.0782996 -0.0041614 0)
(0.0789034 -0.00372881 0)
(0.079365 -0.00333217 0)
(0.0796426 -0.00297195 0)
(0.0796957 -0.00264707 0)
(0.0794872 -0.00235556 0)
(0.078979 -0.00209475 0)
(0.0781322 -0.00186163 0)
(0.0769067 -0.0016531 0)
(0.0752643 -0.00146626 0)
(0.0731645 -0.00129842 0)
(0.0705627 -0.0011468 0)
(0.0674195 -0.00100951 0)
(0.0636825 -0.000884072 0)
(0.0593005 -0.000768414 0)
(0.0542224 -0.000660742 0)
(0.0483849 -0.000558523 0)
(0.041733 -0.000459927 0)
(0.0342026 -0.000362877 0)
(0.0257238 -0.000265064 0)
(0.0162221 -0.000163861 0)
(0.00560691 -5.6065e-05 0)
(0.0817698 -0.00700279 0)
(0.0825605 -0.00682808 0)
(0.0829139 -0.00657473 0)
(0.0830251 -0.00625242 0)
(0.0830399 -0.00587643 0)
(0.0830544 -0.00546562 0)
(0.0830725 -0.00503858 0)
(0.0830967 -0.00461094 0)
(0.0831063 -0.004195 0)
(0.0830722 -0.00379904 0)
(0.0829587 -0.00342807 0)
(0.0827249 -0.00308467 0)
(0.0823273 -0.00276951 0)
(0.0817258 -0.0024822 0)
(0.0808766 -0.00222149 0)
(0.0797354 -0.00198555 0)
(0.0782547 -0.00177191 0)
(0.0763949 -0.00157865 0)
(0.0741115 -0.00140364 0)
(0.0713529 -0.00124434 0)
(0.0680708 -0.00109869 0)
(0.0642187 -0.000964975 0)
(0.0597389 -0.000840766 0)
(0.0545766 -0.000724264 0)
(0.04867 -0.000613268 0)
(0.0419582 -0.000505743 0)
(0.0343743 -0.000399496 0)
(0.0258463 -0.000292077 0)
(0.0162971 -0.000180675 0)
(0.00563259 -6.1839e-05 0)
(0.0908716 -0.00626757 0)
(0.0913169 -0.00616436 0)
(0.0912561 -0.00601469 0)
(0.0908688 -0.00580113 0)
(0.0902816 -0.00552824 0)
(0.0896283 -0.00521027 0)
(0.088973 -0.00486429 0)
(0.0883457 -0.00450497 0)
(0.0877327 -0.00414529 0)
(0.0871197 -0.00379398 0)
(0.0864776 -0.00345726 0)
(0.0857678 -0.00313913 0)
(0.0849432 -0.00284159 0)
(0.0839667 -0.00256566 0)
(0.0827888 -0.00231153 0)
(0.0813619 -0.00207854 0)
(0.0796343 -0.00186498 0)
(0.0775568 -0.00166939 0)
(0.0750849 -0.00149054 0)
(0.0721667 -0.00132653 0)
(0.0687471 -0.00117525 0)
(0.0647755 -0.00103511 0)
(0.0601946 -0.000904132 0)
(0.0549458 -0.00078046 0)
(0.0489664 -0.000662047 0)
(0.0421916 -0.000546805 0)
(0.0345519 -0.000432469 0)
(0.0259728 -0.000316485 0)
(0.0163743 -0.000195904 0)
(0.00565898 -6.70749e-05 0)
(0.0989465 -0.00556936 0)
(0.0991411 -0.00553335 0)
(0.0987618 -0.00546343 0)
(0.0979565 -0.00533067 0)
(0.0968799 -0.00513772 0)
(0.095667 -0.00489808 0)
(0.0944321 -0.00462517 0)
(0.0932282 -0.00433253 0)
(0.0920708 -0.00403094 0)
(0.0909479 -0.00372815 0)
(0.0898356 -0.00343077 0)
(0.0886985 -0.00314369 0)
(0.0874911 -0.00286956 0)
(0.0861664 -0.00261048 0)
(0.0846787 -0.00236811 0)
(0.0829771 -0.00214252 0)
(0.0810111 -0.00193326 0)
(0.078724 -0.0017393 0)
(0.0760673 -0.00155983 0)
(0.0729882 -0.00139356 0)
(0.0694309 -0.00123893 0)
(0.0653403 -0.00109447 0)
(0.0606574 -0.000958489 0)
(0.0553213 -0.000829227 0)
(0.0492674 -0.000704759 0)
(0.0424281 -0.000583016 0)
(0.0347315 -0.000461706 0)
(0.0261003 -0.000338217 0)
(0.016452 -0.000209501 0)
(0.00568545 -7.1756e-05 0)
(0.106136 -0.00499978 0)
(0.106147 -0.0050007 0)
(0.105467 -0.00496534 0)
(0.104262 -0.00487373 0)
(0.102736 -0.00473287 0)
(0.101058 -0.00455332 0)
(0.099346 -0.00434407 0)
(0.0976621 -0.00411349 0)
(0.0960457 -0.0038682 0)
(0.0944897 -0.00361481 0)
(0.0929722 -0.00335917 0)
(0.0914599 -0.00310612 0)
(0.0899128 -0.00285927 0)
(0.0882761 -0.00262149 0)
(0.0865047 -0.00239485 0)
(0.0845481 -0.00218044 0)
(0.0823539 -0.00197863 0)
(0.0798667 -0.00178928 0)
(0.0770338 -0.00161198 0)
(0.0738 -0.00144595 0)
(0.0701084 -0.00129012 0)
(0.0659012 -0.00114326 0)
(0.0611178 -0.00100395 0)
(0.055695 -0.000870596 0)
(0.0495667 -0.000741397 0)
(0.0426627 -0.000614348 0)
(0.034909 -0.000487174 0)
(0.026226 -0.00035724 0)
(0.0165283 -0.00022144 0)
(0.00571141 -7.58732e-05 0)
(0.112643 -0.00459419 0)
(0.112424 -0.00457706 0)
(0.111353 -0.00452001 0)
(0.109715 -0.00443238 0)
(0.107768 -0.0043223 0)
(0.105693 -0.00419073 0)
(0.103601 -0.00403727 0)
(0.101553 -0.00386324 0)
(0.0995776 -0.00367159 0)
(0.0976747 -0.0034666 0)
(0.0958251 -0.00325303 0)
(0.0939977 -0.00303548 0)
(0.0921533 -0.00281792 0)
(0.0902439 -0.00260369 0)
(0.0882219 -0.00239541 0)
(0.0860367 -0.00219488 0)
(0.0836353 -0.00200321 0)
(0.0809632 -0.00182092 0)
(0.0779655 -0.00164811 0)
(0.0745859 -0.00148447 0)
(0.0707662 -0.00132934 0)
(0.066447 -0.00118183 0)
(0.0615661 -0.00104074 0)
(0.056059 -0.000904693 0)
(0.0498577 -0.000772027 0)
(0.0428903 -0.000640831 0)
(0.0350807 -0.000508879 0)
(0.0263471 -0.000373549 0)
(0.0166015 -0.000231717 0)
(0.00573626 -7.94236e-05 0)
(0.118532 -0.00430332 0)
(0.117845 -0.00419737 0)
(0.116235 -0.00407774 0)
(0.114153 -0.00398327 0)
(0.111856 -0.00390263 0)
(0.109488 -0.00381775 0)
(0.107129 -0.0037171 0)
(0.104825 -0.00359608 0)
(0.102595 -0.00345463 0)
(0.100436 -0.00329543 0)
(0.0983334 -0.00312241 0)
(0.096258 -0.00293989 0)
(0.0941735 -0.00275196 0)
(0.0920365 -0.00256226 0)
(0.0898007 -0.00237381 0)
(0.0874165 -0.00218894 0)
(0.0848321 -0.0020093 0)
(0.0819934 -0.00183597 0)
(0.0788453 -0.00166951 0)
(0.0753309 -0.00151004 0)
(0.0713916 -0.00135728 0)
(0.0669668 -0.00121063 0)
(0.0619934 -0.00106918 0)
(0.0564057 -0.000931727 0)
(0.0501342 -0.000796782 0)
(0.0431059 -0.000662546 0)
(0.0352426 -0.000526868 0)
(0.0264606 -0.000387169 0)
(0.0166699 -0.00024034 0)
(0.00575938 -8.24097e-05 0)
(0.123215 -0.0039518 0)
(0.12183 -0.0036934 0)
(0.119713 -0.00355225 0)
(0.117347 -0.00349844 0)
(0.114875 -0.00347323 0)
(0.112373 -0.00344389 0)
(0.109887 -0.00339599 0)
(0.107448 -0.00332441 0)
(0.105067 -0.0032288 0)
(0.102746 -0.00311145 0)
(0.100469 -0.00297603 0)
(0.0982125 -0.00282666 0)
(0.0959452 -0.00266744 0)
(0.0936278 -0.00250213 0)
(0.091217 -0.002334 0)
(0.0886657 -0.0021657 0)
(0.0859241 -0.0019993 0)
(0.0829396 -0.00183628 0)
(0.0796575 -0.00167759 0)
(0.0760215 -0.00152371 0)
(0.0719728 -0.0013747 0)
(0.0674505 -0.00123024 0)
(0.062391 -0.00108966 0)
(0.0567276 -0.000951977 0)
(0.0503902 -0.000815853 0)
(0.0433044 -0.000679619 0)
(0.0353907 -0.000541221 0)
(0.0265638 -0.000398146 0)
(0.0167315 -0.000247334 0)
(0.0057801 -8.48389e-05 0)
(0.00545024 0.000117335 0)
(0.0156884 0.000340271 0)
(0.0247133 0.000543644 0)
(0.0326664 0.00073319 0)
(0.039682 0.000913572 0)
(0.0458786 0.00108845 0)
(0.0513623 0.00126074 0)
(0.0562286 0.00143272 0)
(0.0605651 0.00160618 0)
(0.0644527 0.00178247 0)
(0.0679666 0.00196246 0)
(0.071178 0.00214659 0)
(0.0741542 0.00233479 0)
(0.0769594 0.00252642 0)
(0.0796549 0.00272017 0)
(0.0822989 0.00291398 0)
(0.0849457 0.0031049 0)
(0.0876451 0.00328899 0)
(0.0904404 0.00346132 0)
(0.0933673 0.00361605 0)
(0.0964491 0.00374661 0)
(0.0996939 0.00384613 0)
(0.10309 0.00390808 0)
(0.106603 0.00392723 0)
(0.11017 0.00390057 0)
(0.113703 0.00382762 0)
(0.117094 0.00370776 0)
(0.120216 0.00352957 0)
(0.122947 0.00323642 0)
(0.125192 0.00266951 0)
(0.0054903 0.000121032 0)
(0.0158073 0.000350873 0)
(0.0249109 0.000560209 0)
(0.0329463 0.000754771 0)
(0.0400503 0.000939195 0)
(0.0463432 0.00111708 0)
(0.0519323 0.00129124 0)
(0.056914 0.00146382 0)
(0.0613764 0.00163642 0)
(0.0654002 0.00181015 0)
(0.0690605 0.00198563 0)
(0.0724273 0.00216299 0)
(0.0755666 0.00234179 0)
(0.0785403 0.00252105 0)
(0.0814063 0.00269909 0)
(0.0842187 0.00287351 0)
(0.0870263 0.00304108 0)
(0.0898718 0.00319778 0)
(0.0927903 0.00333874 0)
(0.0958071 0.00345842 0)
(0.0989348 0.00355088 0)
(0.10217 0.00361006 0)
(0.105491 0.00363026 0)
(0.108855 0.00360665 0)
(0.112195 0.00353505 0)
(0.115426 0.00341126 0)
(0.118446 0.00322583 0)
(0.121147 0.00295926 0)
(0.123397 0.00257285 0)
(0.125113 0.00198936 0)
(0.00552819 0.000124131 0)
(0.0159202 0.000359738 0)
(0.0250992 0.000573976 0)
(0.0332136 0.000772526 0)
(0.0404025 0.000959959 0)
(0.0467876 0.00113979 0)
(0.0524769 0.00131471 0)
(0.0575674 0.00148672 0)
(0.0621471 0.00165724 0)
(0.0662962 0.00182716 0)
(0.070089 0.00199685 0)
(0.0735939 0.00216616 0)
(0.0768746 0.00233441 0)
(0.0799902 0.0025003 0)
(0.0829947 0.00266194 0)
(0.0859374 0.00281672 0)
(0.088861 0.00296134 0)
(0.0918011 0.00309185 0)
(0.0947846 0.00320365 0)
(0.0978277 0.00329169 0)
(0.100933 0.00335069 0)
(0.104089 0.00337547 0)
(0.107267 0.00336098 0)
(0.11042 0.00330289 0)
(0.113484 0.00319597 0)
(0.116384 0.00303464 0)
(0.119025 0.00281056 0)
(0.121299 0.00251026 0)
(0.123126 0.00211033 0)
(0.124455 0.00155186 0)
(0.00556296 0.000126604 0)
(0.0160244 0.000366786 0)
(0.025274 0.000584832 0)
(0.033463 0.000786322 0)
(0.040732 0.000975734 0)
(0.0472038 0.00115648 0)
(0.0529869 0.0013311 0)
(0.0581783 0.00150146 0)
(0.0628654 0.0016688 0)
(0.0671277 0.00183381 0)
(0.0710378 0.00199666 0)
(0.0746624 0.00215697 0)
(0.0780624 0.00231384 0)
(0.0812933 0.00246581 0)
(0.0844053 0.00261083 0)
(0.0874424 0.00274628 0)
(0.0904415 0.0028689 0)
(0.0934312 0.00297496 0)
(0.0964314 0.0030603 0)
(0.099451 0.00312034 0)
(0.102485 0.00315061 0)
(0.105516 0.0031468 0)
(0.108514 0.00310421 0)
(0.111435 0.00301893 0)
(0.114219 0.00288698 0)
(0.116788 0.002704 0)
(0.119067 0.00246521 0)
(0.120987 0.00216031 0)
(0.122495 0.00177217 0)
(0.123547 0.00127005 0)
(0.00559368 0.000128426 0)
(0.0161172 0.000371955 0)
(0.0254313 0.00059269 0)
(0.033689 0.00079607 0)
(0.0410321 0.000986444 0)
(0.0475841 0.00116709 0)
(0.0534534 0.00134043 0)
(0.0587365 0.00150816 0)
(0.0635202 0.00167136 0)
(0.0678824 0.00183056 0)
(0.0718942 0.00198573 0)
(0.0756198 0.00213635 0)
(0.079117 0.00228138 0)
(0.0824378 0.00241924 0)
(0.0856279 0.00254788 0)
(0.0887269 0.00266476 0)
(0.0917664 0.00276675 0)
(0.0947679 0.00285045 0)
(0.0977464 0.00291232 0)
(0.100707 0.0029481 0)
(0.103636 0.00295412 0)
(0.10652 0.00292672 0)
(0.109327 0.00286246 0)
(0.112008 0.00275825 0)
(0.11451 0.0026121 0)
(0.116777 0.00242063 0)
(0.118754 0.00218002 0)
(0.120394 0.00188393 0)
(0.121659 0.00152311 0)
(0.122521 0.00108716 0)
(0.00561946 0.000129583 0)
(0.0161961 0.000375204 0)
(0.025567 0.0005975 0)
(0.0338864 0.000801722 0)
(0.0412967 0.000992068 0)
(0.0479211 0.00117167 0)
(0.0538679 0.00134281 0)
(0.0592328 0.00150703 0)
(0.0641013 0.00166528 0)
(0.0685499 0.00181794 0)
(0.0726473 0.00196484 0)
(0.0764552 0.00210537 0)
(0.0800285 0.00223838 0)
(0.0834152 0.00236229 0)
(0.0866567 0.00247511 0)
(0.0897889 0.00257457 0)
(0.0928397 0.00265758 0)
(0.0958226 0.00272112 0)
(0.098754 0.00276215 0)
(0.101633 0.0027774 0)
(0.104441 0.00276368 0)
(0.107162 0.00271811 0)
(0.109765 0.0026388 0)
(0.112211 0.0025235 0)
(0.11446 0.00237058 0)
(0.116468 0.00217812 0)
(0.118196 0.0019439 0)
(0.119612 0.00166497 0)
(0.120693 0.00133836 0)
(0.121422 0.000964047 0)
(0.00563944 0.000130066 0)
(0.0162587 0.000376514 0)
(0.0256776 0.00059924 0)
(0.0340504 0.000803275 0)
(0.0415196 0.000992636 0)
(0.0482079 0.0011703 0)
(0.0542228 0.0013384 0)
(0.0596588 0.00149836 0)
(0.0645998 0.001651 0)
(0.0691207 0.00179657 0)
(0.073288 0.00193483 0)
(0.0771605 0.00206509 0)
(0.08079 0.0021862 0)
(0.0842209 0.00229661 0)
(0.0874895 0.00239436 0)
(0.0906334 0.00247745 0)
(0.0936746 0.00254336 0)
(0.0966207 0.00258926 0)
(0.0994827 0.00261247 0)
(0.102256 0.00261086 0)
(0.104927 0.00258191 0)
(0.10748 0.00252359 0)
(0.109888 0.00243443 0)
(0.112121 0.00231314 0)
(0.114147 0.00215884 0)
(0.115935 0.00197072 0)
(0.117458 0.00174811 0)
(0.118696 0.00149063 0)
(0.119634 0.0011991 0)
(0.120267 0.000877608 0)
(0.00565285 0.000129871 0)
(0.0163029 0.000375879 0)
(0.0257598 0.000597916 0)
(0.034177 0.000800754 0)
(0.0416962 0.00098821 0)
(0.0484393 0.0011631 0)
(0.0545123 0.00132741 0)
(0.0600085 0.00148244 0)
(0.0650101 0.0016289 0)
(0.0695897 0.00176698 0)
(0.0738115 0.00189639 0)
(0.0777319 0.0020164 0)
(0.0813997 0.00212592 0)
(0.0848566 0.00222349 0)
(0.0881374 0.00230737 0)
(0.0912721 0.00237556 0)
(0.0942783 0.00242623 0)
(0.0971664 0.00245705 0)
(0.0999419 0.00246591 0)
(0.102601 0.002451 0)
(0.105134 0.00241061 0)
(0.107524 0.00234339 0)
(0.109752 0.00224844 0)
(0.111794 0.00212519 0)
(0.113626 0.00197342 0)
(0.115229 0.00179324 0)
(0.116583 0.00158517 0)
(0.117676 0.00135045 0)
(0.118502 0.00109169 0)
(0.119061 0.000813924 0)
(0.00565931 0.000129013 0)
(0.0163274 0.000373338 0)
(0.0258111 0.000593588 0)
(0.0342627 0.000794255 0)
(0.0418222 0.000978936 0)
(0.0486101 0.00115027 0)