/*--------------------------------*- C++ -*----------------------------------*\
| =========                 |                                                 |
| \\      /  F ield         | OpenFOAM: The Open Source CFD Toolbox           |
|  \\    /   O peration     | Version:  5.x                                   |
|   \\  /    A nd           | Web:      www.OpenFOAM.org                      |
|    \\/     M anipulation  |                                                 |
\*---------------------------------------------------------------------------*/
FoamFile
{
    version     2.0;
    format      ascii;
    class       volScalarField;
    location    "4.5";
    object      p;
}
// * * * * * * * * * * * * * * * * * * * * * * * * * * * * * * * * * * * * * //

dimensions      [0 2 -2 0 0 0 0];

internalField   nonuniform List<scalar> 
2790
(
139.849
139.604
139.724
140.179
140.856
141.707
142.727
143.913
145.261
146.764
148.414
150.204
152.126
154.169
156.32
158.561
160.871
163.222
165.581
167.909
170.16
172.284
174.228
175.938
177.367
178.478
179.253
179.694
179.794
179.952
139.661
139.525
139.667
140.118
140.791
141.639
142.655
143.836
145.177
146.672
148.313
150.094
152.006
154.038
156.179
158.411
160.712
163.056
165.412
167.742
170
172.136
174.099
175.833
177.289
178.425
179.208
179.613
179.766
180.119
139.48
139.415
139.574
140.015
140.675
141.512
142.514
143.678
145
146.472
148.088
149.84
151.72
153.718
155.821
158.012
160.272
162.574
164.89
167.184
169.414
171.534
173.494
175.244
176.737
177.935
178.821
179.418
179.861
180.359
139.28
139.247
139.418
139.851
140.497
141.318
142.302
143.445
144.74
146.182
147.763
149.476
151.312
153.26
155.308
157.44
159.637
161.874
164.125
166.358
168.533
170.612
172.55
174.304
175.836
177.119
178.152
178.967
179.616
180.22
139.052
139.033
139.214
139.639
140.269
141.071
142.031
143.146
144.408
145.81
147.347
149.009
150.788
152.673
154.652
156.709
158.825
160.979
163.145
165.295
167.396
169.413
171.31
173.054
174.615
175.974
177.13
178.091
178.836
179.426
138.79
138.778
138.962
139.377
139.989
140.766
141.698
142.778
144
145.355
146.839
148.441
150.152
151.963
153.86
155.828
157.849
159.902
161.966
164.014
166.019
167.952
169.785
171.492
173.052
174.448
175.67
176.701
177.467
177.954
138.494
138.484
138.665
139.068
139.659
140.408
141.306
142.346
143.52
144.822
146.244
147.777
149.411
151.136
152.939
154.804
156.715
158.652
160.596
162.522
164.409
166.232
167.97
169.603
171.116
172.495
173.721
174.766
175.534
175.949
138.163
138.151
138.325
138.714
139.28
139.998
140.858
141.852
142.973
144.214
145.566
147.021
148.568
150.197
151.894
153.643
155.429
157.234
159.038
160.82
162.562
164.243
165.847
167.36
168.771
170.069
171.24
172.255
173.032
173.474
137.796
137.78
137.946
138.316
138.855
139.539
140.355
141.299
142.361
143.535
144.811
146.179
147.63
149.152
150.731
152.351
153.998
155.652
157.295
158.908
160.474
161.976
163.398
164.732
165.971
167.113
168.153
169.082
169.855
170.415
137.396
137.375
137.527
137.877
138.387
139.032
139.802
140.69
141.689
142.789
143.981
145.256
146.603
148.008
149.457
150.936
152.427
153.912
155.372
156.789
158.144
159.42
160.604
161.687
162.666
163.549
164.346
165.08
165.754
166.433
136.962
136.935
137.073
137.399
137.877
138.48
139.2
140.029
140.959
141.981
143.084
144.258
145.492
146.771
148.081
149.405
150.725
152.023
153.278
154.468
155.574
156.575
157.454
158.198
158.804
159.283
159.662
159.997
160.339
160.909
136.498
136.462
136.584
136.885
137.328
137.888
138.554
139.32
140.178
141.116
142.124
143.192
144.305
145.45
146.611
147.769
148.905
149.998
151.024
151.959
152.776
153.449
153.949
154.254
154.346
154.224
153.919
153.515
153.121
153.203
136.003
135.96
136.064
136.337
136.743
137.257
137.867
138.567
139.348
140.199
141.108
142.063
143.051
144.055
145.058
146.04
146.98
147.853
148.63
149.283
149.774
150.066
150.115
149.871
149.286
148.318
146.951
145.26
143.407
142.255
135.48
135.428
135.513
135.758
136.125
136.591
137.143
137.774
138.476
139.236
140.042
140.881
141.738
142.595
143.434
144.233
144.967
145.607
146.12
146.467
146.604
146.472
146.005
145.114
143.691
141.603
138.692
134.856
130.116
125.729
134.932
134.871
134.936
135.15
135.478
135.893
136.385
136.946
137.566
138.232
138.933
139.652
140.375
141.082
141.753
142.363
142.884
143.283
143.521
143.551
143.314
142.733
141.711
140.11
137.738
134.307
129.372
122.253
111.822
97.1686
0.855051
0.881695
0.845796
0.75631
0.640477
0.521057
0.412222
0.322337
0.255828
0.213026
0.192632
0.190244
0.200774
0.219553
0.243074
0.26893
0.295548
0.321761
0.346347
0.367604
0.384016
0.393475
0.393038
0.380212
0.353942
0.314341
0.262268
0.199064
0.126395
0.0466625
0.814188
0.840913
0.80394
0.716974
0.60641
0.492432
0.387859
0.301134
0.237925
0.199476
0.182135
0.182374
0.19537
0.216272
0.241468
0.268635
0.296302
0.323299
0.348456
0.371034
0.388584
0.398151
0.397224
0.383725
0.356865
0.316838
0.26442
0.200809
0.127312
0.0460787
0.78529
0.796225
0.753521
0.667682
0.562422
0.454363
0.354676
0.271589
0.210921
0.174897
0.161313
0.16606
0.183784
0.209051
0.237994
0.268353
0.298792
0.328168
0.355267
0.378638
0.396495
0.406393
0.40543
0.391464
0.363969
0.3233
0.270141
0.20559
0.13057
0.0463552
0.751123
0.75219
0.704088
0.61883
0.518274
0.415443
0.320132
0.240382
0.182569
0.149316
0.138598
0.147585
0.169886
0.199361
0.232097
0.265888
0.299401
0.331412
0.360486
0.384808
0.403746
0.415685
0.416764
0.404172
0.377183
0.335965
0.281178
0.214292
0.135974
0.0476866
0.721498
0.723794
0.671667
0.586403
0.489044
0.389486
0.296653
0.218297
0.161059
0.127125
0.117857
0.130208
0.155569
0.187545
0.222707
0.2591
0.295438
0.330445
0.362534
0.390112
0.411507
0.424812
0.428781
0.418673
0.393348
0.352307
0.295809
0.226287
0.143636
0.0499513
0.743729
0.732098
0.671791
0.584116
0.487101
0.387964
0.294832
0.214861
0.157463
0.121343
0.107243
0.11783
0.141922
0.172738
0.207455
0.244299
0.282087
0.319674
0.355657
0.388457
0.415898
0.435283
0.444036
0.437093
0.414122
0.37342
0.315208
0.240906
0.151612
0.0517055
0.824714
0.784679
0.713562
0.620131
0.518994
0.416681
0.320534
0.237799
0.172933
0.1292
0.109482
0.111683
0.128138
0.153373
0.184445
0.219816
0.258524
0.299498
0.34116
0.381383
0.4172
0.444645
0.458849
0.459027
0.439726
0.399766
0.339084
0.258717
0.161283
0.0544543
0.932977
0.874446
0.793062
0.690797
0.581486
0.471915
0.369263
0.27891
0.20425
0.149411
0.118337
0.107844
0.112609
0.12856
0.153347
0.185733
0.224927
0.269895
0.318789
0.368746
0.415721
0.454422
0.479154
0.486302
0.471272
0.432218
0.368237
0.28029
0.173191
0.0582508
1.04135
0.989592
0.898862
0.783162
0.659907
0.539363
0.426289
0.324289
0.23899
0.173571
0.128696
0.102843
0.0930361
0.0969275
0.113185
0.141162
0.180416
0.230053
0.287968
0.350378
0.411795
0.46519
0.503163
0.519776
0.510464
0.472178
0.403779
0.306509
0.188004
0.0631915
1.17664
1.12534
1.01376
0.879019
0.739795
0.603501
0.478724
0.368258
0.273268
0.195572
0.135619
0.092834
0.0663728
0.0559812
0.0618531
0.0842888
0.123439
0.178732
0.247888
0.326102
0.405991
0.478158
0.532709
0.561512
0.558848
0.521217
0.447236
0.338801
0.206531
0.06935
1.37295
1.27048
1.12547
0.959631
0.801203
0.655811
0.523481
0.405031
0.300744
0.2109
0.135431
0.0745119
0.0294853
0.00274734
-0.00339329
0.0126398
0.0518161
0.114132
0.197319
0.295515
0.398943
0.494924
0.570106
0.613749
0.618749
0.581197
0.499914
0.378117
0.229628
0.077033
1.60256
1.40519
1.20558
1.01281
0.838836
0.686569
0.551586
0.429311
0.317973
0.217122
0.126111
0.0456226
-0.0204384
-0.0660048
-0.0858438
-0.0769091
-0.0373453
0.0337314
0.13443
0.257851
0.391225
0.517427
0.618181
0.679583
0.693044
0.654511
0.563624
0.42556
0.257696
0.0863441
1.78155
1.46092
1.20408
0.99568
0.826103
0.684238
0.558558
0.439138
0.323937
0.213828
0.107455
0.00517332
-0.0858511
-0.153906
-0.189472
-0.188182
-0.147679
-0.0658234
0.0565762
0.21182
0.383364
0.54812
0.680509
0.762934
0.785321
0.744048
0.640486
0.482538
0.291472
0.0974629
1.72145
1.25867
1.02549
0.873612
0.74743
0.641278
0.544367
0.437112
0.320792
0.202924
0.0814111
-0.0463384
-0.169036
-0.265476
-0.319291
-0.325757
-0.283528
-0.188812
-0.0399166
0.155415
0.375903
0.590133
0.76158
0.868693
0.899928
0.853148
0.732788
0.550423
0.331586
0.110523
1.22862
0.596941
0.56716
0.624498
0.599846
0.565047
0.527762
0.438397
0.313481
0.184915
0.0501544
-0.107132
-0.271947
-0.406272
-0.481485
-0.494762
-0.449726
-0.340559
-0.160128
0.0855659
0.36904
0.643145
0.866536
1.00306
1.04218
0.985655
0.842949
0.630485
0.378441
0.125558
134.349
134.278
134.322
134.505
134.79
135.153
135.583
136.07
136.605
137.175
137.766
138.362
138.946
139.498
139.995
140.41
140.713
140.864
140.82
140.524
139.903
138.864
137.277
134.955
131.617
126.802
119.678
108.524
88.5315
33.5021
133.724
133.643
133.665
133.814
134.055
134.364
134.728
135.139
135.586
136.055
136.532
137
137.441
137.833
138.152
138.368
138.447
138.348
138.019
137.397
136.4
134.918
132.802
129.833
125.683
119.823
111.335
98.6196
80.6965
55.0785
133.062
132.97
132.969
133.083
133.279
133.531
133.828
134.16
134.516
134.882
135.243
135.581
135.877
136.107
136.246
136.263
136.12
135.773
135.168
134.235
132.889
131.013
128.453
124.996
120.344
114.084
105.694
94.5803
81.363
66.4838
132.363
132.262
132.236
132.315
132.463
132.657
132.885
133.137
133.401
133.662
133.906
134.113
134.263
134.332
134.294
134.115
133.757
133.173
132.308
131.093
129.44
127.238
124.346
120.583
115.721
109.498
101.657
91.9045
80.2039
66.2917
131.63
131.518
131.468
131.51
131.61
131.746
131.903
132.074
132.245
132.401
132.527
132.604
132.61
132.521
132.31
131.944
131.382
130.579
129.479
128.016
126.109
123.658
120.542
116.619
111.725
105.683
98.3207
89.4264
78.8446
66.8398
130.864
130.741
130.667
130.671
130.723
130.799
130.886
130.975
131.053
131.106
131.116
131.065
130.931
130.689
130.314
129.77
129.02
128.018
126.713
125.044
122.937
120.308
117.061
113.085
108.267
102.485
95.6375
87.6394
78.4846
68.5952
130.067
129.933
129.834
129.801
129.804
129.821
129.838
129.846
129.833
129.783
129.68
129.505
129.236
128.85
128.32
127.613
126.693
125.516
124.038
122.203
119.949
117.208
113.904
109.959
105.296
99.8453
93.5638
86.4466
78.5347
70.1564
129.242
129.097
128.973
128.903
128.858
128.816
128.764
128.693
128.59
128.44
128.228
127.934
127.538
127.016
126.344
125.49
124.419
123.095
121.476
119.515
117.162
114.363
111.063
107.209
102.753
97.6641
91.9311
85.5773
78.6488
71.4063
128.391
128.236
128.088
127.981
127.889
127.789
127.669
127.52
127.331
127.086
126.769
126.363
125.848
125.202
124.401
123.416
122.217
120.771
119.042
116.992
114.582
111.77
108.519
104.795
100.574
95.8439
90.614
84.9176
78.8047
72.4913
127.518
127.353
127.182
127.039
126.9
126.744
126.559
126.336
126.063
125.727
125.313
124.803
124.178
123.42
122.504
121.406
120.099
118.556
116.746
114.64
112.206
109.417
106.247
102.678
98.699
94.3137
89.5403
84.4165
78.9919
73.4408
126.627
126.452
126.258
126.08
125.897
125.687
125.439
125.145
124.794
124.373
123.867
123.261
122.538
121.679
120.664
119.471
118.077
116.459
114.594
112.458
110.029
107.288
104.221
100.818
97.0807
93.0188
88.6556
84.0285
79.1824
74.2566
125.722
125.538
125.322
125.111
124.885
124.623
124.315
123.955
123.53
123.03
122.441
121.748
120.936
119.99
118.89
117.618
116.157
114.486
112.587
110.444
108.041
105.367
102.415
99.1832
95.678
91.9142
87.9161
83.7181
79.3593
74.9518
124.807
124.614
124.378
124.136
123.869
123.558
123.195
122.772
122.279
121.707
121.042
120.271
119.383
118.36
117.19
115.856
114.344
112.637
110.724
108.592
106.231
103.637
100.806
97.7422
94.4562
90.9638
87.2888
83.4616
79.5158
75.5417
123.887
123.687
123.432
123.16
122.855
122.499
122.084
121.603
121.048
120.41
119.677
118.839
117.883
116.798
115.571
114.188
112.64
110.914
109.001
106.894
104.587
102.078
99.3699
96.469
93.3866
90.1395
86.7494
83.243
79.6488
76.0398
122.968
122.762
122.489
122.189
121.849
121.451
120.988
120.455
119.844
119.147
118.355
117.458
116.445
115.308
114.035
112.618
111.047
109.314
107.414
105.341
103.094
100.675
98.0881
95.3409
92.4458
89.4188
86.2796
83.0511
79.7574
76.4578
122.056
121.843
121.554
121.229
120.856
120.42
119.914
119.334
118.673
117.924
117.081
116.133
115.074
113.895
112.588
111.146
109.564
107.834
105.955
103.924
101.743
99.4136
96.9426
94.339
91.6146
88.7844
85.8657
82.8784
79.8425
76.8065
121.155
120.937
120.634
120.287
119.884
119.413
118.869
118.246
117.541
116.748
115.86
114.871
113.773
112.562
111.23
109.774
108.189
106.471
104.62
102.635
100.52
98.279
95.9183
93.4473
90.8775
88.2225
85.4976
82.7197
79.9056
77.0954
120.273
120.051
119.735
119.367
118.938
118.437
117.858
117.198
116.455
115.624
114.698
113.675
112.547
111.312
109.964
108.501
106.92
105.22
103.401
101.465
99.4166
97.2597
95.0021
92.6526
90.2221
87.7226
85.1677
82.5718
79.9491
77.3326
119.416
119.191
118.864
118.478
118.025
117.496
116.887
116.196
115.42
114.556
113.601
112.549
111.399
110.146
108.789
107.325
105.754
104.076
102.293
100.407
98.4223
96.3454
94.1831
91.944
89.6382
87.2764
84.8705
82.4328
79.9754
77.5257
118.591
118.363
118.026
117.624
117.151
116.599
115.964
115.245
114.442
113.551
112.571
111.498
110.331
109.067
107.706
106.247
104.69
103.037
101.29
99.4524
97.5295
95.5271
93.4521
91.3128
89.118
86.8777
84.6021
82.3019
79.9873
77.6811
117.804
117.574
117.229
116.814
116.323
115.751
115.093
114.352
113.526
112.614
111.614
110.525
109.346
108.076
106.715
105.264
103.724
102.097
100.387
98.5962
96.7312
94.7974
92.8017
90.7517
88.6555
86.5219
84.3599
82.1788
79.9875
77.8049
117.063
116.832
116.481
116.053
115.548
114.958
114.282
113.522
112.677
111.747
110.732
109.632
108.445
107.173
105.816
104.376
102.855
101.254
99.5791
97.8332
96.0218
94.1505
92.2261
90.2554
88.2459
86.2056
84.1424
82.0643
79.9791
77.9026
116.376
116.143
115.787
115.349
114.831
114.226
113.535
112.76
111.9
110.957
109.931
108.822
107.632
106.361
105.01
103.582
102.079
100.505
98.8638
97.1591
95.3964
93.5814
91.7202
89.8194
87.8857
85.9263
83.9483
81.9587
79.9643
77.9784
115.75
115.517
115.155
114.709
114.18
113.563
112.86
112.072
111.2
110.247
109.213
108.1
106.908
105.64
104.297
102.882
101.398
99.849
98.2386
96.5713
94.8523
93.0871
91.2814
89.4414
87.5733
85.6834
83.7783
81.8641
79.947
78.038
115.193
114.959
114.593
114.14
113.601
112.975
112.261
111.463
110.583
109.622
108.583
107.467
106.276
105.011
103.677
102.275
100.809
99.2828
97.7004
96.0664
94.3858
92.6639
90.9061
89.1181
87.3057
85.4748
83.6311
81.7803
79.9279
78.0831
114.714
114.48
114.109
113.649
113.102
112.468
111.747
110.941
110.054
109.089
108.046
106.929
105.739
104.48
103.154
101.764
100.315
98.8088
97.251
95.6458
93.9981
92.3129
90.5954
88.8511
87.0853
85.3034
83.5107
81.7124
79.9135
78.1219
114.323
114.086
113.709
113.241
112.688
112.047
111.319
110.508
109.616
108.647
107.603
106.486
105.299
104.044
102.726
101.348
99.9119
98.4234
96.8863
95.305
93.6844
92.0292
90.3445
88.6354
86.907
85.1643
83.4122
81.6554
79.8987
78.1484
114.03
113.789
113.404
112.929
112.371
111.725
110.993
110.177
109.282
108.311
107.265
106.149
104.964
103.715
102.403
101.034
99.6097
98.1352
96.6147
95.0524
93.4532
91.8216
90.1626
88.4809
86.7816
85.0692
83.3486
81.6243
79.9006
78.1833
113.85
113.586
113.185
112.705
112.145
111.496
110.761
109.943
109.047
108.074
107.029
105.914
104.732
103.486
102.18
100.817
99.4011
97.9365
96.4275
94.8783
93.2936
91.6779
90.0361
88.3727
86.6926
85.0002
83.3002
81.5967
79.8939
78.1966
113.844
113.512
113.084
112.599
112.036
111.385
110.647
109.827
108.929
107.957
106.912
105.798
104.618
103.375
102.073
100.715
99.3052
97.8476
96.3464
94.806
93.2308
91.6255
89.9946
88.3428
86.6747
84.9947
83.3073
81.6166
79.9266
78.2414
-53.1918
-31.4312
-10.8266
35.8529
29.1145
17.9601
50.15
38.5523
27.8803
50.898
41.0184
33.4969
55.0485
47.2512
40.9309
59.1875
52.6914
47.168
62.2133
56.6849
51.9526
64.6082
59.8858
55.8459
66.6236
62.5488
59.0668
68.3163
64.757
61.7217
69.7327
66.5905
63.9166
70.9208
68.1209
65.7419
71.9196
69.4032
67.2676
72.7598
70.4807
68.5478
73.4667
71.388
69.6255
74.061
72.1526
70.5346
74.5598
72.7972
71.3023
74.9773
73.34
71.9505
75.3257
73.7963
72.4973
75.6151
74.1789
72.9577
75.8543
74.4986
73.3442
76.0513
74.7649
73.6678
76.2122
74.9851
73.9371
76.3443
75.1677
74.1611
76.4498
75.3156
74.3438
76.5394
75.4402
74.4967
76.6049
75.5338
74.6134
76.6723
75.6224
74.7183
76.7047
75.6702
74.7792
76.7695
75.7486
74.8638
-1.52311
-2.09914
-0.762557
0.319876
0.491579
0.490441
0.511676
0.437734
0.289944
0.159718
0.0301773
-0.161239
-0.391683
-0.586771
-0.69126
-0.707235
-0.656315
-0.531583
-0.314092
-0.0040857
0.363674
0.721963
1.00633
1.1774
1.22187
1.14891
0.975851
0.72564
0.433275
0.142809
3.28909
0.0706543
1.33644
1.35071
0.245764
-0.0432742
0.371109
0.562256
0.338465
0.166463
0.0246698
-0.224552
-0.565961
-0.852582
-0.978129
-0.96789
-0.902166
-0.766759
-0.512494
-0.122138
0.358125
0.832513
1.1993
1.40873
1.45287
1.35265
1.13742
0.839373
0.497521
0.162358
14.0343
5.94779
3.26836
1.21572
0.465345
0.964703
1.66067
1.12761
0.149559
-0.140841
-0.0633752
-0.192005
-0.691952
-1.13736
-1.31047
-1.27015
-1.21199
-1.09245
-0.808186
-0.304651
0.3524
0.992464
1.46682
1.71647
1.74804
1.60376
1.32954
0.972244
0.571096
0.183581
23.4442
14.1114
8.53429
4.877
2.91731
2.10478
1.53576
0.79904
0.296601
0.338391
0.693944
0.18594
-0.974605
-1.81467
-2.06776
-1.81122
-1.55973
-1.43377
-1.10474
-0.459568
0.35852
1.21972
1.82807
2.09737
2.11671
1.90837
1.55288
1.12502
0.656333
0.205378
32.2075
23.0064
16.0259
10.9103
7.3506
4.93339
3.21027
1.97466
1.16231
0.721529
0.39823
-0.309997
-1.33481
-2.23646
-2.31819
-1.55738
-1.5099
-1.96524
-1.8395
-1.06866
0.277663
1.54556
2.32065
2.60811
2.60163
2.2948
1.8163
1.29709
0.75904
0.22529
39.7085
31.3315
23.8446
17.696
12.9511
9.38385
6.7075
4.68472
3.13907
1.95467
0.964552
-0.034366
-1.09281
-1.98173
-2.30154
-2.2655
-2.39633
-2.53895
-2.05938
-0.754636
0.784086
2.04584
2.8762
3.25983
3.18911
2.72025
2.04361
1.41936
0.871466
0.237402
45.7762
38.4751
31.1259
24.5675
19.1656
14.8205
11.3265
8.50091
6.20783
4.34547
2.79451
1.41539
0.143497
-0.901302
-1.54849
-1.86314
-2.00758
-1.97116
-1.4593
-0.387224
0.92313
2.23123
3.32447
3.89033
3.78277
3.13363
2.30512
1.66323
1.23796
0.285981
50.6958
44.401
37.5556
31.0714
25.4434
20.6599
16.5946
13.1464
10.2366
7.78861
5.71215
3.9098
2.33601
1.0454
0.125274
-0.425987
-0.697991
-0.706964
-0.309938
0.543598
1.67605
2.83699
3.75821
4.18817
4.02561
3.38115
2.55331
1.81056
1.13888
0.100504
54.6899
49.241
43.0345
36.8995
31.3507
26.4318
22.0759
18.2402
14.8911
11.9843
9.46299
7.27053
5.37956
3.81161
2.60914
1.77588
1.26921
1.08198
1.27217
1.8439
2.65986
3.49916
4.1321
4.36893
4.12883
3.48969
2.65863
1.81661
0.965141
-0.187834
57.9361
53.1768
47.6105
41.943
36.6561
31.819
27.3992
23.387
19.7812
16.5679
13.7213
11.2146
9.03372
7.18715
5.69477
4.56168
3.77258
3.32005
3.21232
3.42221
3.84018
4.29566
4.60669
4.62145
4.26755
3.58936
2.724
1.7993
0.834071
-0.366941
60.5945
56.3945
51.4092
46.2304
41.2886
36.6592
32.3263
28.2971
24.5896
21.2116
18.1593
15.4255
13.0071
10.9107
9.14796
7.72487
6.63582
5.87053
5.4156
5.23295
5.23584
5.2951
5.26875
5.03585
4.53306
3.77921
2.85953
1.86223
0.818894
-0.385851
62.7917
59.0479
54.5671
49.8484
45.2708
40.9064
36.7461
32.8037
29.1063
25.6738
22.516
19.638
17.0451
14.7459
12.7501
11.0635
9.68385
8.60061
7.79442
7.22702
6.82942
6.50399
6.14237
5.65042
4.97377
4.11386
3.11942
2.05037
0.9452
-0.257094
64.6213
61.2538
57.2036
52.8975
48.6694
44.5845
40.6356
36.8376
33.2202
29.8087
26.6202
23.6669
20.9595
18.5088
16.3244
14.4125
12.7724
11.3954
10.2628
9.34082
8.57541
7.89345
7.21377
6.46408
5.59822
4.60737
3.51678
2.36681
1.19578
-0.0231888
66.1536
63.0999
59.416
55.4719
51.5639
47.7498
44.0221
40.394
36.8945
33.5504
30.3818
27.4043
24.6315
22.0757
19.7471
17.6521
15.7917
14.1594
12.7396
11.505
10.4143
9.41313
8.44138
7.44389
6.38219
5.24264
4.03621
2.78931
1.53508
0.268281
67.4426
64.6529
61.281
57.6519
54.0303
50.4675
46.9547
43.5026
40.1379
36.8864
33.7688
30.8019
28.0006
25.3778
22.9439
20.7061
18.6664
16.8209
15.1577
13.656
12.2849
11.0045
9.77034
8.54059
7.28383
5.98497
4.64657
3.28478
1.92523
0.576436
68.5301
65.9639
62.8589
59.5029
56.1347
52.7998
49.4881
46.2075
42.9813
39.8339
36.7848
33.851
31.0472
28.3865
25.8794
23.5334
21.3518
19.3328
17.4681
15.7427
14.1338
12.6124
11.1458
9.70239
8.25676
6.7942
5.31231
3.8197
2.33394
0.871605
69.4492
67.0732
64.197
61.0779
57.9325
54.8016
51.674
48.5547
45.464
42.4236
39.4519
36.5647
33.7761
31.099
28.5437
26.1181
23.8264
21.6684
19.6393
17.7284
15.9196
14.1919
12.5212
10.8836
9.2587
7.63298
6.00111
4.36602
2.73771
1.13648
70.2265
68.0127
65.3332
62.4194
59.4693
56.5197
53.5585
50.588
47.6256
44.6904
41.7989
38.9658
36.2043
33.5263
30.9422
28.4597
26.0838
23.816
21.6537
19.59
17.6138
15.7099
13.8606
12.048
10.2556
8.47103
6.68737
4.90322
3.12203
1.36458
70.8836
68.8084
66.2981
63.5623
60.783
57.9935
55.1811
52.3461
49.5027
46.6679
43.8562
41.0807
38.3535
35.6858
33.0874
30.5659
28.127
25.773
23.5035
21.3144
19.1981
17.1439
15.139
13.1696
11.2223
9.28598
7.35272
5.41792
3.47965
1.55704
71.4383
69.4816
67.117
64.5354
61.9049
59.2562
56.576
53.8628
51.1284
48.3874
45.6524
42.9352
40.2466
37.5967
34.9948
32.4483
29.9631
27.5424
25.1871
22.8951
20.6618
18.4797
16.3394
14.2302
12.1412
10.0623
7.98496
5.90223
3.80811
1.719
71.9054
70.0499
67.8106
65.3622
62.861
60.3355
57.772
55.1674
52.5315
49.8766
47.214
44.5537
41.9053
39.278
36.6804
34.1196
31.6013
29.1295
26.7059
24.3301
21.9993
19.7085
17.4508
15.2177
13.0004
10.7894
8.57604
6.35164
4.10729
1.85632
72.2977
70.5285
68.3965
66.0629
63.6736
61.2551
58.7937
56.2851
53.7371
51.1604
48.5645
45.9582
43.35
40.748
38.1599
35.5926
33.0517
30.5413
28.0638
25.6199
23.2082
20.8253
18.4663
16.1244
13.792
11.4606
9.12109
6.76396
4.37826
1.97423
72.6254
70.9293
68.889
66.6536
64.3604
62.0343
59.6615
57.2368
54.7664
52.2595
49.7241
47.168
44.5982
42.0223
39.4472
36.879
34.3233
31.7842
29.2645
26.7656
24.2871
21.8268
19.3809
16.9442
14.51
12.0702
9.61601
7.13702
4.62116
2.07574
72.8984
71.2639
69.3012
67.1493
64.9378
62.6906
60.3939
58.0417
55.6389
53.1932
50.7117
48.2009
45.6671
43.1167
40.5561
37.9908
35.4262
32.8661
30.3138
27.7708
25.2375
22.7126
20.1932
17.6749
15.1518
12.6163
10.0595
7.47094
4.83763
2.16389
73.1224
71.5391
69.6411
67.5592
65.4165
63.2357
61.0033
58.7126
56.3675
53.9746
51.54
49.0692
46.5677
44.0412
41.4953
38.9352
36.3656
33.7906
31.2132
28.6353
26.0577
23.4795
20.8986
18.3111
15.7117
13.0932
10.4468
7.76178
5.02488
2.23764
73.3081
71.7664
69.9217
67.8974
65.8111
63.6851
61.5059
59.2664
56.9694
54.6208
52.2259
49.7894
47.3161
44.811
42.279
39.7251
37.1534
34.568
31.9717
29.3666
26.7536
24.1323
21.501
18.8562
16.1929
13.5043
10.7815
8.01387
5.18781
2.3015
73.4523
71.9435
70.141
68.1622
66.1209
64.0385
61.9018
59.7032
57.4449
55.1321
52.7694
50.361
47.911
45.4238
42.904
40.3561
37.784
35.1913
32.581
29.9551
27.3147
24.6596
21.9882
19.2974
16.5824
13.8366
11.0513
8.21549
5.31588
2.34816
73.5752
72.0907
70.3202
68.3761
66.3688
64.3194
62.2148
60.0474
57.8187
55.5332
53.1953
50.8085
48.3766
45.9036
43.3937
40.8509
38.2791
35.6816
33.0613
30.4203
27.7595
25.0789
22.3772
19.6513
16.8966
14.1066
11.2724
8.38309
5.42491
2.38968
73.6516
72.1824
70.4329
68.5125
66.5281
64.5007
62.4177
60.2711
58.0622
55.7951
53.4738
51.1016
48.682
46.2187
43.7155
41.1764
38.605
36.0045
33.3777
30.7266
28.0522
25.3547
22.6325
19.8829
17.1012
14.2808
11.4128
8.48597
5.48652
2.40483
73.7355
72.267
70.529
68.6228
66.6514
64.636
62.5644
60.4289
58.2304
55.9729
53.66
51.2951
48.8815
46.4227
43.9224
41.3845
38.8126
36.2097
33.5786
30.9213
28.2389
25.5315
22.7977
20.0348
17.238
14.4006
11.5134
8.56422
5.53667
2.40989
)
;

boundaryField
{
    inlet
    {
        type            zeroGradient;
    }
    outlet
    {
        type            fixedValue;
        value           uniform 0;
    }
    flap
    {
        type            zeroGradient;
    }
    upperWall
    {
        type            zeroGradient;
    }
    lowerWall
    {
        type            zeroGradient;
    }
    frontAndBack
    {
        type            empty;
    }
}


// ************************************************************************* //
