/*--------------------------------*- C++ -*----------------------------------*\
| =========                 |                                                 |
| \\      /  F ield         | OpenFOAM: The Open Source CFD Toolbox           |
|  \\    /   O peration     | Version:  5.x                                   |
|   \\  /    A nd           | Web:      www.OpenFOAM.org                      |
|    \\/     M anipulation  |                                                 |
\*---------------------------------------------------------------------------*/
FoamFile
{
    version     2.0;
    format      ascii;
    class       surfaceScalarField;
    location    "4.5";
    object      phi;
}
// * * * * * * * * * * * * * * * * * * * * * * * * * * * * * * * * * * * * * //

dimensions      [0 3 -1 0 0 0 0];

internalField   nonuniform List<scalar> 
5457
(
0.198133
0.0016234
0.195974
0.0019424
0.193524
0.00226524
0.190734
0.00263485
0.187602
0.0030025
0.184133
0.00336422
0.180321
0.00372821
0.176154
0.00410154
0.171617
0.00448898
0.166689
0.00489423
0.161349
0.00532014
0.155572
0.00576895
0.149334
0.00624216
0.142608
0.00674164
0.135368
0.00726745
0.127589
0.00781659
0.119249
0.00838498
0.110337
0.00896585
0.100848
0.0095486
0.090796
0.0101185
0.0802106
0.0106561
0.0691484
0.0111365
0.0576957
0.0115294
0.0459735
0.0117999
0.0341385
0.0119115
0.0223674
0.0118412
0.010772
0.0116488
-0.000272111
0.0110648
-0.00395234
0.00363534
-0.00391612
0.199764
0.00161588
0.198858
0.00263084
0.197539
0.0033996
0.195843
0.00417485
0.193768
0.00494835
0.191313
0.00571391
0.188474
0.00648346
0.18524
0.0072702
0.181596
0.00808383
0.177524
0.00893215
0.173002
0.00982132
0.168007
0.0107562
0.162512
0.0117407
0.15649
0.0127785
0.149914
0.0138698
0.142756
0.0150107
0.13499
0.0161946
0.126599
0.017409
0.117571
0.0186344
0.10791
0.019843
0.0976368
0.0209973
0.0867951
0.0220483
0.0754612
0.0229343
0.0637517
0.0235793
0.0518434
0.0238867
0.0400211
0.0237226
0.0288913
0.0228185
0.0196763
0.0202828
0.00846717
0.0147796
0.00454001
0.199616
0.00175559
0.198775
0.00325489
0.197526
0.00446286
0.195927
0.00561756
0.193985
0.00676057
0.191698
0.00789471
0.189064
0.00903364
0.186073
0.0101952
0.182713
0.0113938
0.178969
0.0126408
0.174822
0.0139459
0.170252
0.0153172
0.165233
0.0167622
0.15974
0.0182854
0.153746
0.0198881
0.147221
0.0215689
0.140135
0.0233212
0.132462
0.0251305
0.124178
0.0269725
0.115269
0.0288117
0.105729
0.030599
0.0955723
0.0322675
0.0848379
0.0337301
0.0735998
0.0348743
0.0619873
0.0355486
0.0502104
0.0355385
0.0385207
0.0345274
0.0268304
0.0319555
0.0142886
0.0272476
0.0188074
0.199533
0.00197834
0.19869
0.00387981
0.197459
0.00550834
0.19588
0.00703893
0.193968
0.00854041
0.191726
0.0100298
0.189152
0.0115238
0.186237
0.0130435
0.182972
0.0146076
0.179345
0.0162299
0.175345
0.0179229
0.170953
0.0196978
0.16615
0.0215647
0.160916
0.0235303
0.155226
0.0255976
0.149056
0.0277676
0.142377
0.030036
0.135161
0.0323895
0.127379
0.034804
0.119
0.037243
0.109999
0.0396534
0.100358
0.0419607
0.0900716
0.0440651
0.0791527
0.0458341
0.0676368
0.0470932
0.0555809
0.0476083
0.0430194
0.0470843
0.0298175
0.045121
0.0156119
0.0413756
0.0343358
0.199491
0.00224252
0.198637
0.00451479
0.197421
0.00653809
0.195864
0.00843697
0.193982
0.0102886
0.191781
0.0121233
0.189259
0.0139628
0.186404
0.0158309
0.183208
0.0177491
0.179665
0.019734
0.175761
0.0218004
0.171482
0.0239621
0.166811
0.0262305
0.161732
0.0286154
0.156224
0.0311225
0.150261
0.0337541
0.143816
0.0365083
0.136865
0.0393759
0.129375
0.0423378
0.121301
0.0453608
0.112603
0.0483943
0.103238
0.0513664
0.0931598
0.054177
0.0823276
0.0566904
0.0707047
0.0587257
0.058258
0.0600461
0.0449666
0.0603488
0.0308019
0.0592361
0.0157446
0.0563597
0.0500599
0.19947
0.00252673
0.198611
0.00515469
0.197412
0.00754911
0.195885
0.00980451
0.194041
0.011997
0.191888
0.0141674
0.189426
0.0163431
0.186637
0.0185499
0.183517
0.0208116
0.180061
0.0231483
0.176255
0.0255776
0.172084
0.0281148
0.167531
0.0307731
0.162582
0.0335649
0.15722
0.0364992
0.151412
0.0395807
0.145129
0.04281
0.138349
0.0461833
0.131035
0.0496891
0.123128
0.0533018
0.114576
0.0569774
0.105316
0.0606534
0.0952735
0.0642384
0.0843703
0.0676016
0.0725296
0.0705593
0.0596932
0.0728571
0.0458465
0.0741528
0.0310758
0.0739538
0.0156672
0.0717215
0.0656878
0.199461
0.0028189
0.198603
0.00579188
0.197426
0.00853763
0.195935
0.0111354
0.194137
0.013658
0.192042
0.0161533
0.189645
0.0186541
0.186934
0.0211883
0.183904
0.0237824
0.180547
0.02646
0.176852
0.0292411
0.172802
0.0321431
0.168381
0.0351818
0.163572
0.0383717
0.158355
0.0417255
0.152698
0.0452519
0.146566
0.0489563
0.139926
0.0528408
0.132739
0.0569005
0.124943
0.0611201
0.11647
0.0654689
0.107239
0.0698965
0.0971587
0.0743238
0.0861272
0.0786267
0.0740509
0.0826151
0.0608681
0.0860033
0.0465927
0.0883781
0.0313976
0.0891019
0.0157226
0.0873854
0.0813742
0.199459
0.00311164
0.19861
0.00641935
0.197459
0.00949916
0.196008
0.0124241
0.194265
0.0152644
0.192235
0.0180723
0.189912
0.0208854
0.187291
0.0237345
0.184363
0.0266489
0.181121
0.0296549
0.177552
0.0327751
0.173641
0.0360297
0.169374
0.0394376
0.164725
0.0430167
0.159667
0.0467828
0.154176
0.0507495
0.148214
0.0549295
0.14173
0.0593321
0.134677
0.0639584
0.127
0.0688057
0.118613
0.0738608
0.109421
0.0790873
0.0993179
0.0844191
0.0881875
0.089739
0.0759257
0.0948474
0.062468
0.0994204
0.0478389
0.102961
0.0322441
0.104664
0.0161506
0.103496
0.0974334
0.199462
0.00340007
0.198628
0.00703115
0.197507
0.0104289
0.196103
0.0136651
0.19442
0.0168092
0.192462
0.019916
0.190226
0.0230272
0.187705
0.0261775
0.184891
0.0293984
0.181777
0.0327184
0.178351
0.036163
0.174598
0.0397558
0.170502
0.0435192
0.166035
0.0474756
0.161164
0.0516433
0.155867
0.0560419
0.150108
0.0606928
0.143824
0.0656122
0.136962
0.0708116
0.129459
0.0763028
0.121223
0.0820892
0.112147
0.0881513
0.10211
0.0944381
0.0909797
0.100843
0.0786344
0.10716
0.0649809
0.113037
0.0500316
0.117877
0.0339615
0.120721
0.0171288
0.120357
0.114603
0.199469
0.00368077
0.198654
0.00762231
0.197568
0.011322
0.196215
0.0148532
0.194599
0.0182857
0.192722
0.0216765
0.190581
0.0250708
0.188171
0.0285066
0.185484
0.032018
0.182513
0.0356359
0.179245
0.0393884
0.175667
0.0433022
0.171761
0.0474041
0.167501
0.0517198
0.162855
0.0562726
0.157796
0.0610885
0.152284
0.0661965
0.146262
0.0716225
0.139668
0.0773893
0.132431
0.0835235
0.124455
0.0900473
0.115624
0.0969608
0.105804
0.104233
0.0948355
0.111781
0.0825532
0.11941
0.0688172
0.126745
0.0535815
0.133097
0.0368792
0.137426
0.0188323
0.138421
0.133487
0.199478
0.00395114
0.198686
0.00818868
0.19764
0.0121738
0.196344
0.0159832
0.1948
0.0196876
0.193011
0.0233462
0.190974
0.0270071
0.188686
0.0307113
0.186138
0.0344954
0.183324
0.0383928
0.180231
0.0424342
0.176847
0.0466495
0.173154
0.0510687
0.16913
0.0557203
0.164746
0.0606346
0.159971
0.0658446
0.154765
0.0713847
0.149076
0.0772914
0.142843
0.0836006
0.135988
0.0903547
0.128414
0.0975949
0.120001
0.105346
0.110594
0.113608
0.100009
0.122334
0.0880271
0.131363
0.0744281
0.140326
0.0589776
0.148546
0.0414287
0.154988
0.0216101
0.158247
0.155205
0.199489
0.00420917
0.198723
0.00872674
0.197721
0.0129803
0.196486
0.0170502
0.195021
0.021009
0.193328
0.024918
0.191404
0.0288276
0.189246
0.0327816
0.186849
0.0368189
0.184205
0.0409752
0.181305
0.0452837
0.178136
0.0497771
0.174681
0.0544879
0.170923
0.0594485
0.166835
0.0646946
0.162389
0.0702646
0.157549
0.0761991
0.152272
0.0825422
0.146498
0.0893466
0.140151
0.096671
0.133142
0.104572
0.125349
0.113104
0.11661
0.122312
0.106721
0.132189
0.0954127
0.142646
0.0822975
0.153428
0.0668208
0.164026
0.0483016
0.173525
0.0260514
0.180511
0.181332
0.199501
0.00445318
0.198766
0.00923346
0.197811
0.0137376
0.196642
0.0180497
0.195261
0.0222446
0.193669
0.0263854
0.191865
0.0305246
0.189848
0.0347084
0.187612
0.0389776
0.185152
0.0433699
0.18246
0.0479208
0.179525
0.0526651
0.176334
0.0576378
0.172871
0.0628748
0.169117
0.0684152
0.165048
0.0743014
0.160635
0.0805801
0.155841
0.0873029
0.150619
0.0945342
0.144909
0.102345
0.138634
0.110809
0.13169
0.12001
0.123929
0.130034
0.115139
0.140942
0.104985
0.15277
0.0929038
0.165492
0.0779801
0.178947
0.0588396
0.192677
0.0336537
0.205717
0.215041
0.199515
0.00468181
0.198812
0.00970628
0.197908
0.0144422
0.196808
0.0189776
0.195516
0.0233895
0.194031
0.0277425
0.192356
0.0320911
0.190487
0.0364832
0.188423
0.0409615
0.186158
0.0455652
0.183688
0.0503313
0.181004
0.0552964
0.178099
0.0604971
0.174959
0.0659718
0.171573
0.0717616
0.167925
0.0779118
0.163994
0.084473
0.159755
0.0915029
0.155179
0.0990704
0.150229
0.107253
0.144853
0.116141
0.138981
0.125838
0.132505
0.136466
0.125239
0.148167
0.116849
0.161124
0.106727
0.175585
0.0937218
0.191931
0.0756378
0.210749
0.0483172
0.233044
0.26333
0.19953
0.00489378
0.198861
0.0101429
0.198012
0.0150913
0.196985
0.0198306
0.195785
0.0244395
0.194413
0.0289846
0.192871
0.0335215
0.191157
0.0380997
0.189272
0.042763
0.187212
0.0475518
0.184974
0.0525043
0.182556
0.0576576
0.179952
0.0630496
0.177158
0.0687194
0.174165
0.0747088
0.170969
0.081064
0.167562
0.0878367
0.163935
0.095086
0.160079
0.102881
0.155985
0.111301
0.151638
0.12044
0.147016
0.130411
0.142076
0.141356
0.13673
0.153466
0.130787
0.16702
0.123854
0.182474
0.115069
0.200673
0.102321
0.223458
0.0793377
0.255998
0.342615
0.00323945
-0.00344453
0.00688815
-0.00376398
0.010191
-0.00346691
0.0129243
-0.0028958
0.0150577
-0.00226493
0.0165943
-0.00163406
0.0175371
-0.00101269
0.0179058
-0.000416747
0.0177629
0.000111726
0.0171773
0.000566564
0.0162814
0.000894703
0.0151878
0.00111222
0.0140003
0.0012158
0.0128255
0.0012124
0.0117545
0.00111949
0.0108511
0.000959671
0.0101616
0.00075503
0.00971648
0.000523315
0.00953495
0.000274948
0.00964157
-2.1457e-06
0.0100273
-0.00027472
0.0106353
-0.000485555
0.0113717
-0.000599202
0.0121484
-0.00062284
0.0129122
-0.000590841
0.0136461
-0.000541756
0.0143645
-0.000506949
0.0150972
-0.000501731
0.0158626
-0.000513908
-0.000500563
0.00332886
-0.00689812
0.00684286
-0.00739691
0.00998218
-0.00676007
0.0126508
-0.00571029
0.0148544
-0.0045841
0.0165994
-0.00346615
0.0178889
-0.00236573
0.0187222
-0.00129422
0.0190935
-0.000288302
0.0190405
0.000603281
0.0186289
0.00130566
0.0179848
0.001774
0.0172211
0.0020093
0.0164371
0.00203462
0.0157164
0.00188674
0.0151247
0.00160679
0.0147121
0.00123399
0.0145103
0.000803603
0.0145243
0.000353235
0.0147048
-8.04099e-05
0.0150306
-0.000490793
0.0154896
-0.000821922
0.0160618
-0.00103437
0.0167026
-0.00111016
0.0173636
-0.00107838
0.0180052
-0.00099072
0.0186122
-0.00090229
0.0191948
-0.000853293
0.0197799
-0.000847452
-0.000813357
0.00305214
-0.010061
0.00601924
-0.0104888
0.0085577
-0.00942889
0.0106896
-0.00795496
0.0124611
-0.00644201
0.013884
-0.00495557
0.0149606
-0.00349196
0.0156897
-0.00205831
0.0160903
-0.000711377
0.0161719
0.000509723
0.0159519
0.00152606
0.0155334
0.0022101
0.0150168
0.00255754
0.0144747
0.00261416
0.0139671
0.00243559
0.0135467
0.00207839
0.0132512
0.00159475
0.0130951
0.00103793
0.0130693
0.000470814
0.0131278
-3.76531e-05
0.0132134
-0.000466822
0.0133371
-0.000822961
0.0135041
-0.00106692
0.0137207
-0.00117499
0.0139766
-0.00115964
0.0142447
-0.00106501
0.0145054
-0.000951043
0.0147571
-0.000873725
0.0150285
-0.000867052
-0.000935254
0.00261517
-0.0127248
0.00490085
-0.0128799
0.00670519
-0.0113206
0.00817163
-0.00948849
0.009369
-0.00768996
0.0103215
-0.00594842
0.0110392
-0.00424079
0.0115126
-0.00255402
0.0117539
-0.000966343
0.0117844
0.000473779
0.0115435
0.00177322
0.0111649
0.00260936
0.0107146
0.00303997
0.0102428
0.00312359
0.0097855
0.00293276
0.00937034
0.00254297
0.00900404
0.00202418
0.00867018
0.00144812
0.00834145
0.000890445
0.00799306
0.000412656
0.00759955
3.9444e-05
0.00717002
-0.000269014
0.00674151
-0.000507429
0.00639274
-0.000678866
0.00618346
-0.00077549
0.00612478
-0.000810969
0.00620795
-0.000821797
0.00641735
-0.000851724
0.00675139
-0.000949155
-0.00109392
0.00200466
-0.0147516
0.00347754
-0.0144177
0.00445463
-0.0123329
0.00516901
-0.0102229
0.00568335
-0.0082202
0.00604185
-0.006322
0.00627049
-0.00448268
0.00638059
-0.00267382
0.00643474
-0.00102488
0.00624175
0.000669374
0.00582894
0.00220069
0.00534957
0.0031148
0.00482144
0.00359985
0.00425877
0.00372323
0.00365265
0.00358193
0.00299306
0.00325438
0.00227332
0.00280622
0.0015116
0.00228485
0.000763841
0.00172774
0.000102638
0.00117594
-0.000406212
0.000663315
-0.000741624
0.000193924
-0.000924616
-0.000192075
-0.000977193
-0.000481901
-0.00091581
-0.000664174
-0.000786451
-0.000744442
-0.000623461
-0.000772364
-0.000443993
-0.000799758
-0.000246469
-0.000894579
-0.00106741
0.00124711
-0.0159446
0.00175534
-0.0149567
0.00183946
-0.0124102
0.00171493
-0.0100825
0.00143531
-0.00793053
0.00106811
-0.00595088
0.000662631
-0.00407654
0.000254704
-0.00226524
-0.000399891
-0.000366643
-0.0010914
0.00137042
-0.00155536
0.00268435
-0.00207389
0.0036637
-0.00262699
0.00418669
-0.00323612
0.00436961
-0.00388828
0.004281
-0.00456185
0.00398279
-0.00521538
0.00352275
-0.00579799
0.00294284
-0.00627111
0.00229005
-0.00661646
0.00162315
-0.00683399
0.000996283
-0.00695642
0.000445345
-0.0070042
-8.27829e-06
-0.00701522
-0.000324097
-0.00698957
-0.000518913
-0.00693392
-0.000606048
-0.00686479
-0.000629571
-0.00677484
-0.000658366
-0.00664902
-0.000768153
-0.000938547
0.000325143
-0.0161709
-0.00023702
-0.0144003
-0.00114411
-0.0114733
-0.00219088
-0.00900239
-0.00334527
-0.00675261
-0.00453907
-0.00474255
-0.00572747
-0.00287883
-0.00691743
-0.00106737
-0.00793804
0.00066381
-0.00862701
0.00207409
-0.00915944
0.00323917
-0.00960576
0.00414151
-0.0100563
0.0046734
-0.0105198
0.0048736
-0.0109774
0.00478805
-0.0114047
0.00446721
-0.0117763
0.00395944
-0.012073
0.00331589
-0.0122889
0.00259585
-0.01243
0.00186607
-0.0125046
0.00118675
-0.0125301
0.000601692
-0.012539
0.000139069
-0.0125374
-0.000176134
-0.012532
-0.000353705
-0.0125207
-0.000425289
-0.0124918
-0.000447189
-0.0124268
-0.000492199
-0.0123291
-0.000613487
-0.000739331
-0.000764602
-0.0152743
-0.00241161
-0.0127365
-0.00428656
-0.00956328
-0.00626684
-0.00698883
-0.00824136
-0.00475296
-0.0101184
-0.002848
-0.0118571
-0.00112673
-0.0133421
0.000430106
-0.0144062
0.00174255
-0.0151707
0.00285753
-0.0157443
0.0038381
-0.0161734
0.00460304
-0.0165298
0.00506787
-0.0168385
0.00522608
-0.0171018
0.00510266
-0.0173156
0.00473995
-0.0174768
0.00418771
-0.0175852
0.00350138
-0.0176416
0.00274342
-0.0176537
0.00198166
-0.0176315
0.0012805
-0.017588
0.000690496
-0.0175535
0.000245305
-0.0175383
-4.04092e-05
-0.0175401
-0.000180923
-0.0175483
-0.000225961
-0.0175376
-0.00024702
-0.0174882
-0.000310462
-0.0174208
-0.00042844
-0.00050687
-0.00194385
-0.0132858
-0.00465254
-0.00998698
-0.00754479
-0.00664023
-0.0103682
-0.0041423
-0.0130042
-0.00209829
-0.0153803
-0.000456091
-0.0173331
0.0008408
-0.018779
0.00189188
-0.0198408
0.00282307
-0.0206569
0.00369679
-0.0212592
0.00446903
-0.0216878
0.00506651
-0.0219979
0.00541864
-0.0222219
0.00549678
-0.0223756
0.00530995
-0.0224687
0.00489403
-0.0225098
0.00429774
-0.0225065
0.0035758
-0.0224611
0.00278945
-0.0223802
0.00200703
-0.022281
0.00129814
-0.0221811
0.000721151
-0.0221062
0.000312674
-0.0220726
7.94195e-05
-0.0220729
-8.88562e-06
-0.0220886
-1.92205e-05
-0.0220905
-3.44897e-05
-0.0220599
-0.000110013
-0.0220187
-0.000216966
-0.000248372
-0.00326118
-0.0100064
-0.00714866
-0.00604364
-0.0111544
-0.00261294
-0.0148457
-0.000439675
-0.0178908
0.000957587
-0.0202204
0.00188694
-0.021976
0.0026125
-0.0233553
0.00329043
-0.0244518
0.00394265
-0.0252928
0.00456533
-0.0259139
0.00512269
-0.0263587
0.00554938
-0.0266698
0.00577338
-0.026874
0.00575061
-0.026988
0.00548004
-0.0270266
0.00499593
-0.0270046
0.0043468
-0.0269337
0.00358435
-0.0268198
0.00276677
-0.02667
0.00196379
-0.0265057
0.0012518
-0.026353
0.000697926
-0.0262387
0.000341129
-0.0261813
0.000177706
-0.0261749
0.000157381
-0.0261962
0.000193202
-0.0262139
0.000193846
-0.0262123
0.000119519
-0.0262099
3.34173e-05
4.5543e-05
-0.00504177
-0.00503162
-0.010836
-0.000212996
-0.0156149
0.00217297
-0.0192931
0.00324224
-0.022069
0.00374138
-0.024247
0.00407916
-0.0259898
0.00437491
-0.0273751
0.00469966
-0.0284631
0.0050587
-0.0292981
0.00543261
-0.0299267
0.00578789
-0.0303953
0.00605952
-0.0307354
0.00616037
-0.0309593
0.00602689
-0.0310739
0.00565337
-0.0310947
0.00508233
-0.031042
0.00436736
-0.0309309
0.00355508
-0.0307692
0.00269739
-0.0305654
0.00186562
-0.0303421
0.00114649
-0.0301335
0.000619285
-0.0299757
0.000326363
-0.0298908
0.000249842
-0.0298749
0.000314778
-0.0299017
0.000411454
-0.0299382
0.000441142
-0.0299681
0.000380597
-0.0300042
0.000322529
0.000373554
-0.00766551
0.00256799
-0.0142935
0.00641581
-0.0191994
0.00707694
-0.0229311
0.00697902
-0.0258031
0.00662644
-0.0279876
0.00628368
-0.0296679
0.00608087
-0.0309855
0.00604702
-0.0320201
0.0061267
-0.0328197
0.00626923
-0.0334389
0.00644788
-0.0339312
0.00659677
-0.0343177
0.00659663
-0.0345864
0.00635066
-0.0347248
0.00585285
-0.0347466
0.0051719
-0.0346811
0.004377
-0.0345477
0.00350537
-0.0343516
0.00259517
-0.034099
0.00171869
-0.0338138
0.000979158
-0.0335395
0.000475114
-0.0333263
0.000256501
-0.0332039
0.000285274
-0.0331712
0.000455948
-0.0332002
0.000632106
-0.0332542
0.000705992
-0.0333109
0.000668633
-0.033373
0.00063783
0.000725585
-0.00954861
0.0121151
-0.0173884
0.0142439
-0.0229871
0.0126813
-0.0268407
0.0108492
-0.0295993
0.00940891
-0.031605
0.00831829
-0.0330926
0.00760119
-0.0342622
0.00725239
-0.0352017
0.00710458
-0.0359364
0.0070452
-0.0365242
0.00708015
-0.0370377
0.00715834
-0.0374893
0.00710057
-0.0378275
0.00674617
-0.0380048
0.00609314
-0.0380336
0.00527015
-0.0379618
0.004382
-0.0378167
0.00344541
-0.0375953
0.00246868
-0.0372937
0.00152314
-0.0369359
0.000739244
-0.036578
0.00024749
-0.0362927
0.000114791
-0.036122
0.000272773
-0.0360687
0.000576936
-0.0361023
0.000857568
-0.0361795
0.000994085
-0.0362686
0.000989073
-0.036359
0.000981663
0.0010994
-0.0120338
0.0242292
-0.0220415
0.024248
-0.027837
0.0184985
-0.0312145
0.0142577
-0.0335385
0.0117678
-0.0351757
0.00999261
-0.0362972
0.00876158
-0.0372206
0.00821635
-0.038033
0.00795924
-0.0386791
0.00773564
-0.039206
0.00765415
-0.0397368
0.00773951
-0.0402841
0.00770219
-0.0407275
0.0072486
-0.0409546
0.00638469
-0.0409803
0.00536664
-0.0408962
0.0043759
-0.0407455
0.00338086
-0.0405053
0.00232416
-0.0401497
0.00127389
-0.0396984
0.000405824
-0.0392264
-9.41119e-05
-0.0388434
-0.000124444
-0.0386085
0.000196207
-0.0385287
0.000671536
-0.0385682
0.0010891
-0.0386735
0.00131021
-0.0387999
0.00134688
-0.0389235
0.00135874
0.00149422
-0.0162344
0.0404855
-0.0291104
0.0371388
-0.0344396
0.0238628
-0.0362566
0.0161151
-0.0376834
0.0132364
-0.0387374
0.0110887
-0.0392037
0.00927034
-0.0397601
0.00881614
-0.0404855
0.00872914
-0.0410711
0.00836771
-0.0414893
0.00812112
-0.0420142
0.00831634
-0.042705
0.00844865
-0.0433137
0.0079174
-0.043601
0.00673758
-0.0435889
0.00542623
-0.0434689
0.00433481
-0.0433197
0.0033186
-0.0430723
0.00217301
-0.0426581
0.000966371
-0.0420788
-5.54862e-05
-0.0414625
-0.000580032
-0.0409449
-0.000498166
-0.0406282
3.80402e-05
-0.0405197
0.000737537
-0.0405725
0.00133388
-0.0407158
0.00166438
-0.0408896
0.00175191
-0.0410568
0.00177939
0.00191499
0.207188
0.00509559
0.206532
0.0105564
0.205709
0.015704
0.204725
0.0206331
0.203581
0.0254246
0.202282
0.0301461
0.20083
0.0348546
0.199225
0.0396004
0.197469
0.0444282
0.195562
0.0493788
0.193504
0.0544908
0.191296
0.0598015
0.188939
0.0653485
0.186434
0.0711704
0.183782
0.0773081
0.180989
0.0838063
0.178061
0.0907143
0.175008
0.0980881
0.171845
0.105992
0.168594
0.114499
0.165285
0.123694
0.161958
0.133682
0.158662
0.144595
0.155461
0.156611
0.152439
0.169986
0.149737
0.185119
0.147711
0.202642
0.147747
0.223363
0.158635
0.245057
0.259533
0.241626
0.212219
0.00528179
0.211589
0.0109359
0.210812
0.0162645
0.209891
0.0213652
0.20883
0.0263203
0.207635
0.0311986
0.206307
0.0360575
0.204849
0.040948
0.203265
0.045915
0.201559
0.0509992
0.199734
0.0562387
0.197795
0.0616701
0.19575
0.0673297
0.193606
0.0732541
0.191375
0.0794814
0.189073
0.0860521
0.186721
0.0930104
0.184347
0.100405
0.181992
0.108289
0.179711
0.116722
0.177576
0.12577
0.175689
0.135509
0.174195
0.146029
0.173307
0.157437
0.173373
0.169859
0.175037
0.183393
0.179651
0.197967
0.189755
0.213201
0.206447
0.228315
0.243935
0.222011
0.217373
0.00545022
0.216774
0.0112771
0.216048
0.0167665
0.215199
0.0220184
0.214232
0.0271164
0.213152
0.0321296
0.211962
0.0371159
0.210668
0.0421261
0.209275
0.0472048
0.207791
0.0523919
0.206222
0.0577244
0.204579
0.0632371
0.202874
0.0689639
0.201124
0.0749382
0.19935
0.0811934
0.197576
0.0877638
0.19584
0.0946859
0.194186
0.101998
0.192675
0.109738
0.19139
0.117945
0.190438
0.126659
0.189963
0.13592
0.190165
0.145763
0.191329
0.15621
0.193878
0.167249
0.198412
0.178798
0.205657
0.190663
0.216178
0.202627
0.229552
0.214898
0.225707
0.247753
0.222654
0.0055987
0.22209
0.0115756
0.221421
0.0172037
0.220652
0.0225848
0.219788
0.027803
0.218835
0.0329276
0.217797
0.0380164
0.216682
0.0431194
0.215498
0.0482804
0.214254
0.053538
0.212962
0.0589272
0.211637
0.0644801
0.210298
0.0702274
0.208967
0.076198
0.207674
0.0824192
0.206454
0.0889178
0.205354
0.0957204
0.204434
0.102852
0.203769
0.110337
0.20346
0.11819
0.20363
0.126423
0.204443
0.135042
0.206112
0.14403
0.208915
0.153344
0.2132
0.162902
0.219357
0.172582
0.227759
0.182207
0.238849
0.191489
0.253498
0.200212
0.206428
0.272753
0.228064
0.00572513
0.227539
0.0118273
0.226933
0.0175702
0.226252
0.0230565
0.225501
0.0283707
0.224685
0.0335816
0.223812
0.0387463
0.222889
0.0439139
0.221929
0.0491265
0.220942
0.054421
0.219945
0.0598294
0.218957
0.0653809
0.218001
0.0711018
0.217107
0.0770159
0.216312
0.0831436
0.215657
0.0895036
0.215197
0.0961112
0.215
0.10298
0.215152
0.110117
0.215759
0.117515
0.216953
0.125163
0.218894
0.133036
0.221781
0.141079
0.225846
0.149217
0.231346
0.157343
0.238564
0.165309
0.247814
0.172908
0.25946
0.179802
0.273944
0.185694
0.189563
0.290788
0.233607
0.0058275
0.233124
0.0120283
0.232588
0.0178604
0.232001
0.0234265
0.231371
0.0288109
0.230703
0.0340817
0.230005
0.0392946
0.229288
0.0444973
0.228564
0.0497301
0.227849
0.0550271
0.22716
0.0604175
0.226522
0.0659264
0.22596
0.0715753
0.225513
0.0773821
0.225223
0.083362
0.225129
0.0895252
0.225293
0.0958737
0.225791
0.10241
0.226712
0.109126
0.228161
0.115997
0.230263
0.122994
0.233163
0.13007
0.237026
0.137153
0.242029
0.144153
0.248368
0.150947
0.256246
0.157379
0.265857
0.163252
0.277325
0.168295
0.290719
0.172271
0.174597
0.305664
0.239285
0.00590395
0.238849
0.012175
0.238386
0.0180691
0.237901
0.0236884
0.237399
0.0291162
0.236887
0.0344193
0.236374
0.039652
0.235872
0.0448598
0.235396
0.0500807
0.234962
0.0553462
0.234592
0.0606819
0.234312
0.0661088
0.234151
0.071643
0.234152
0.0772972
0.23436
0.0830812
0.234814
0.0889953
0.235578
0.0950314
0.236732
0.101181
0.238361
0.107424
0.240562
0.113727
0.243442
0.120047
0.247123
0.126324
0.251734
0.13248
0.25741
0.138418
0.264284
0.14402
0.272473
0.149142
0.282063
0.153619
0.293065
0.157257
0.305446
0.159861
0.161041
0.318983
0.245102
0.00595278
0.244715
0.0122644
0.244331
0.0181919
0.243953
0.0238366
0.243586
0.02928
0.243237
0.0345873
0.242917
0.0398107
0.242638
0.0449935
0.242417
0.0501711
0.242271
0.0553717
0.242226
0.0606176
0.242307
0.0659253
0.242547
0.0713064
0.24299
0.0767683
0.243679
0.0823137
0.244659
0.087935
0.245992
0.0936184
0.247751
0.099346
0.250013
0.105089
0.252861
0.110809
0.256387
0.116453
0.260687
0.121959
0.265858
0.127249
0.271991
0.13223
0.279165
0.136795
0.287437
0.140824
0.296829
0.144187
0.307309
0.146743
0.318792
0.148351
0.148739
0.331075
0.251061
0.00597253
0.250727
0.0122936
0.250425
0.0182251
0.250158
0.0238664
0.249931
0.029297
0.249752
0.03458
0.24963
0.0397651
0.24958
0.0448931
0.249618
0.0499966
0.249765
0.0551005
0.250044
0.0602236
0.250485
0.0653784
0.251121
0.0705721
0.251992
0.0758071
0.253141
0.0810796
0.254616
0.0863773
0.256473
0.0916814
0.258774
0.0969674
0.261588
0.102202
0.264985
0.107342
0.269037
0.112335
0.273816
0.117118
0.279388
0.121618
0.28581
0.125754
0.293121
0.129434
0.301337
0.132564
0.310442
0.135044
0.320376
0.136778
0.331029
0.137673
0.137535
0.342215
0.257165
0.00596198
0.256886
0.0122604
0.256669
0.0181657
0.256518
0.0237743
0.256435
0.0291634
0.256429
0.0343934
0.256509
0.0395115
0.25669
0.0445558
0.25699
0.0495557
0.257428
0.0545333
0.258029
0.0595036
0.258822
0.0644757
0.259839
0.069453
0.261119
0.074433
0.262703
0.0794076
0.264634
0.0843608
0.266963
0.0892706
0.269745
0.0941086
0.273033
0.0988392
0.276886
0.103419
0.281356
0.107798
0.286494
0.111918
0.292341
0.115714
0.298926
0.119117
0.306259
0.122054
0.314329
0.124452
0.323097
0.12624
0.332489
0.127355
0.342395
0.127743
0.127258
0.352654
0.263418
0.00592017
0.263195
0.0121632
0.263066
0.0180114
0.263032
0.0235579
0.263096
0.0288768
0.263265
0.0340257
0.263549
0.0390488
0.263962
0.0439816
0.264521
0.0488505
0.265246
0.0536745
0.266161
0.0584656
0.267294
0.0632296
0.268675
0.0679665
0.27034
0.0726706
0.272326
0.0773302
0.274672
0.0819273
0.277423
0.086438
0.28062
0.0908326
0.28431
0.0950758
0.288533
0.0991266
0.293328
0.102938
0.298725
0.10646
0.304746
0.109637
0.311399
0.112413
0.318675
0.114732
0.326545
0.116541
0.334959
0.117791
0.343839
0.118445
0.353085
0.118473
0.117765
0.362559
0.269822
0.00584647
0.269656
0.0120011
0.269617
0.0177612
0.269702
0.0232161
0.269914
0.0284364
0.270258
0.0334766
0.270745
0.0383781
0.271387
0.0431733
0.2722
0.0478859
0.273205
0.0525321
0.274423
0.0571211
0.27588
0.0616561
0.277604
0.0661343
0.279626
0.0705478
0.28198
0.0748827
0.284698
0.0791201
0.287817
0.0832355
0.291371
0.0872001
0.295393
0.0909804
0.299911
0.094539
0.30495
0.0978349
0.310525
0.100825
0.316642
0.103465
0.323294
0.105711
0.33046
0.107521
0.338102
0.108859
0.346164
0.109695
0.354573
0.110007
0.363238
0.109784
0.10894
0.372046
0.276381
0.00574055
0.276274
0.0117735
0.276325
0.0174147
0.276529
0.0227489
0.276887
0.0278429
0.277406
0.032748
0.278092
0.0375025
0.278958
0.0421359
0.280019
0.0466695
0.281292
0.0511167
0.282799
0.0554846
0.284561
0.0597741
0.286603
0.0639806
0.288953
0.0680947
0.291638
0.0721017
0.294686
0.0759824
0.298124
0.0797135
0.301977
0.0832678
0.306268
0.0866151
0.311016
0.0897226
0.316232
0.0925555
0.321919
0.0950787
0.328073
0.0972574
0.334676
0.0990589
0.341699
0.100454
0.349101
0.101419
0.356826
0.101937
0.364805
0.101999
0.372962
0.101605
0.100685
0.381198
0.283098
0.00560241
0.28305
0.0114809
0.28319
0.0169727
0.283512
0.0221577
0.284016
0.0270986
0.284705
0.0318433
0.285586
0.0364271
0.286669
0.0408769
0.287967
0.0452112
0.289496
0.0494416
0.291274
0.053573
0.293321
0.0576048
0.295656
0.0615315
0.298303
0.0653427
0.301283
0.0690238
0.304618
0.0725565
0.308327
0.0759192
0.312428
0.0790874
0.316934
0.0820348
0.321855
0.0847334
0.327192
0.0871551
0.332941
0.0892721
0.339087
0.0910582
0.345608
0.0924903
0.35247
0.0935491
0.359631
0.0942206
0.367038
0.0944973
0.374629
0.0943791
0.382339
0.0938721
0.0929207
0.390085
0.289978
0.00543236
0.289988
0.0111241
0.290216
0.0164367
0.290654
0.0214448
0.291299
0.0262071
0.292154
0.0307677
0.293222
0.0351591
0.294513
0.0394054
0.296038
0.043523
0.297808
0.0475217
0.299839
0.0514048
0.302147
0.0551709
0.304749
0.0588137
0.307661
0.0623229
0.310901
0.0656847
0.314483
0.0688822
0.31842
0.071896
0.322723
0.074705
0.327397
0.0772868
0.332444
0.0796186
0.337858
0.0816783
0.343628
0.0834448
0.349734
0.0848993
0.356151
0.0860264
0.362844
0.0868146
0.36977
0.0872573
0.376882
0.0873536
0.384125
0.0871085
0.391442
0.0865323
0.0855795
0.398765
0.297023
0.00523102
0.29709
0.0107045
0.297404
0.0158091
0.297954
0.0206139
0.298737
0.0251732
0.299751
0.0295276
0.300999
0.0337067
0.302488
0.0377321
0.304225
0.0416183
0.30622
0.0453734
0.308485
0.0489999
0.311032
0.0524956
0.313873
0.0558542
0.317021
0.059066
0.320486
0.0621184
0.324279
0.0649963
0.328405
0.0676831
0.332869
0.0701608
0.337671
0.0724114
0.342805
0.0744168
0.348261
0.0761602
0.354022
0.0776264
0.360067
0.0788027
0.366367
0.0796798
0.372889
0.0802521
0.379591
0.0805183
0.386431
0.0804819
0.393361
0.0801512
0.400332
0.0795384
0.0786061
0.407288
0.304238
0.00499924
0.30436
0.0102241
0.304757
0.015093
0.305416
0.0196693
0.30633
0.0240028
0.307496
0.0281307
0.308915
0.0320795
0.310589
0.0358688
0.312524
0.0395113
0.314727
0.0430138
0.317206
0.0463781
0.319969
0.0496018
0.323024
0.0526789
0.326378
0.0556008
0.330038
0.0583561
0.334008
0.060932
0.338289
0.0633147
0.34288
0.0654895
0.347776
0.0674421
0.352966
0.0691589
0.358437
0.0706277
0.364168
0.0718382
0.370138
0.0727826
0.376315
0.0734563
0.382668
0.073858
0.389161
0.0739902
0.395752
0.0738589
0.402402
0.0734743
0.409069
0.0728495
0.0719532
0.415704
0.311625
0.00473815
0.311802
0.00968533
0.312278
0.0142921
0.313041
0.018616
0.31408
0.0227025
0.31539
0.0265852
0.316968
0.030288
0.318816
0.0338282
0.320935
0.037217
0.323329
0.0404603
0.326002
0.0435593
0.328958
0.0465119
0.332202
0.0493127
0.335736
0.0519539
0.339562
0.0544262
0.34368
0.0567188
0.348087
0.0588204
0.352776
0.0607197
0.357738
0.0624059
0.362961
0.0638689
0.368426
0.0651006
0.374114
0.0660947
0.379999
0.0668471
0.386053
0.0673567
0.392245
0.0676252
0.398543
0.0676575
0.404909
0.0674613
0.41131
0.0670475
0.417708
0.0664292
0.0655802
0.424063
0.319191
0.00444901
0.319418
0.00909082
0.319971
0.0134104
0.320832
0.0174597
0.321988
0.0212796
0.323433
0.0249003
0.325161
0.028343
0.32717
0.0316231
0.329458
0.0347504
0.332025
0.0377299
0.334873
0.0405628
0.338002
0.0432471
0.341412
0.0457782
0.345102
0.0481496
0.34907
0.0503537
0.353311
0.0523818
0.357818
0.0542251
0.362581
0.0558751
0.367589
0.0573239
0.372826
0.0585649
0.378272
0.0595928
0.383906
0.0604046
0.389704
0.060999
0.395638
0.0613774
0.40168
0.0615436
0.407799
0.0615037
0.413963
0.0612665
0.420142
0.0608428
0.426304
0.0602451
0.0594516
0.432415
0.326937
0.00413324
0.327213
0.00844349
0.327838
0.0124524
0.328791
0.0162063
0.330059
0.0197417
0.33163
0.0230852
0.333496
0.0262556
0.335652
0.0292663
0.338095
0.0321259
0.34082
0.034839