/*--------------------------------*- C++ -*----------------------------------*\
| =========                 |                                                 |
| \\      /  F ield         | OpenFOAM: The Open Source CFD Toolbox           |
|  \\    /   O peration     | Version:  5.x                                   |
|   \\  /    A nd           | Web:      www.OpenFOAM.org                      |
|    \\/     M anipulation  |                                                 |
\*---------------------------------------------------------------------------*/
FoamFile
{
    version     2.0;
    format      ascii;
    class       surfaceVectorField;
    location    "4.5";
    object      Uf;
}
// * * * * * * * * * * * * * * * * * * * * * * * * * * * * * * * * * * * * * //

dimensions      [0 1 -1 0 0 0 0];

internalField   nonuniform List<vector> 
5457
(
(9.91609 0.024689 1.04522e-22)
(9.96459 0.038362 -3.17188e-20)
(9.81651 0.0317695 1.88163e-21)
(9.9241 0.0468838 3.22466e-20)
(9.70105 0.0377125 8.16756e-21)
(9.85292 0.0560799 0)
(9.56731 0.0439114 -8.84026e-21)
(9.75532 0.0669981 8.13384e-21)
(9.41531 0.0503487 -7.65976e-21)
(9.63789 0.0785019 -4.89036e-20)
(9.24529 0.0570549 8.35714e-21)
(9.50246 0.0904988 8.48296e-21)
(9.05711 0.0641647 -1.85304e-20)
(9.34847 0.103219 0)
(8.85027 0.0718186 1.03426e-21)
(9.1751 0.116888 -5.35816e-20)
(8.62402 0.0801406 -1.36585e-21)
(8.9817 0.131699 -1.81347e-20)
(8.37747 0.0892473 -6.08572e-20)
(8.76752 0.147828 7.44118e-20)
(8.10956 0.0992577 4.58551e-20)
(8.53165 0.165445 -1.59305e-19)
(7.81912 0.110295 -5.17737e-20)
(8.27298 0.184727 2.46532e-19)
(7.50489 0.122482 -3.78199e-20)
(7.99028 0.205842 3.65664e-20)
(7.1656 0.13594 9.12126e-20)
(7.68231 0.228942 -2.60155e-19)
(6.79998 0.15078 0)
(7.34775 0.254154 1.83039e-19)
(6.40688 0.167088 5.53021e-20)
(6.98532 0.28155 9.642e-20)
(5.98537 0.184911 5.37239e-20)
(6.5939 0.311121 3.82911e-21)
(5.53491 0.204233 0)
(6.17262 0.342731 4.30323e-19)
(5.05551 0.224949 -2.01787e-19)
(5.72105 0.37607 -3.35385e-19)
(4.54796 0.246835 6.62578e-19)
(5.23935 0.41061 -2.58609e-19)
(4.01408 0.269501 3.77527e-19)
(4.72855 0.445534 8.46638e-19)
(3.45697 0.292351 -4.44392e-19)
(4.19078 0.479667 -5.85895e-19)
(2.88133 0.314535 7.21939e-19)
(3.62955 0.511412 0)
(2.29363 0.334959 -1.64379e-18)
(3.05008 0.538724 7.122e-19)
(1.7022 0.3526 -1.01615e-18)
(2.45968 0.559175 3.67085e-19)
(1.11664 0.368495 -6.17384e-19)
(1.86798 0.570563 -1.26146e-18)
(0.54335 0.361625 -1.82985e-18)
(1.29122 0.574257 3.62507e-18)
(-0.00469423 0.0644373 2.11541e-18)
(0.726037 0.555153 -6.718e-18)
(-0.196203 -0.275971 3.18214e-18)
(0.217081 0.189409 1.17473e-18)
(0.134482 -0.193617 1.48545e-17)
(9.99763 0.0502038 1.35715e-21)
(9.99245 0.0394483 5.95997e-20)
(9.96072 0.067748 2.98687e-20)
(9.97801 0.0642683 4.42371e-23)
(9.90176 0.0834095 9.015e-23)
(9.93684 0.0847252 -6.67155e-23)
(9.82269 0.100038 -3.27804e-20)
(9.86993 0.106614 9.46519e-20)
(9.72345 0.117603 -3.19035e-20)
(9.78261 0.129767 -1.1867e-22)
(9.60408 0.13613 0)
(9.67684 0.154053 9.95497e-20)
(9.46446 0.155902 -3.58395e-20)
(9.55234 0.179819 5.17493e-22)
(9.30417 0.177233 -7.22327e-20)
(9.40842 0.207488 7.05967e-20)
(9.12254 0.200406 5.89951e-20)
(9.24451 0.237451 -3.61498e-19)
(8.91873 0.225685 -2.74166e-20)
(9.05999 0.270064 2.79273e-19)
(8.69171 0.253328 4.72404e-20)
(8.85402 0.305679 -1.56838e-19)
(8.44034 0.283594 3.31857e-19)
(8.6256 0.34466 1.6153e-19)
(8.16335 0.316726 -1.9004e-19)
(8.3736 0.387359 -1.62604e-19)
(7.85945 0.352936 -1.61972e-19)
(8.09681 0.4341 -1.13812e-20)
(7.52728 0.392378 2.78229e-19)
(7.79393 0.48517 1.83069e-19)
(7.16559 0.435105 4.35753e-20)
(7.46367 0.540752 2.99484e-21)
(6.77328 0.481018 3.86558e-19)
(7.10479 0.600876 7.34796e-19)
(6.34958 0.529798 8.40255e-20)
(6.71623 0.665334 -3.80596e-19)
(5.89418 0.580832 -3.91234e-19)
(6.2972 0.733582 2.06558e-19)
(5.40751 0.633129 -5.89185e-20)
(5.84739 0.804637 -9.55458e-19)
(4.89093 0.68521 -1.37294e-19)
(5.36716 0.876944 0)
(4.34705 0.73499 -1.33499e-19)
(4.85779 0.948199 1.88749e-18)
(3.78012 0.779663 0)
(4.32179 1.01517 -4.26488e-18)
(3.19642 0.815539 2.71854e-18)
(3.76322 1.07348 6.81564e-18)
(2.60508 0.837681 1.06005e-19)
(3.18833 1.11723 -2.74412e-18)
(2.02044 0.838541 3.0293e-18)
(2.60615 1.1378 2.68659e-18)
(1.47174 0.796225 -1.34768e-18)
(2.03121 1.11862 1.28761e-18)
(1.01398 0.650717 -7.6208e-18)
(1.46322 1.01169 -6.70434e-18)
(0.441528 0.251316 1.30812e-17)
(0.943391 0.746809 -9.3165e-19)
(0.480897 0.257113 1.46619e-17)
(9.99031 0.0567068 5.7428e-20)
(9.99018 0.0438801 2.98784e-20)
(9.95666 0.0843475 -2.99011e-20)
(9.9732 0.0801101 -3.03006e-20)
(9.90131 0.110585 9.59336e-20)
(9.93304 0.111609 -3.0856e-20)
(9.82718 0.138214 1.25902e-19)
(9.86915 0.143749 1.88874e-19)
(9.7347 0.167476 1.32826e-19)
(9.78575 0.177525 -6.39685e-20)
(9.62389 0.198492 9.85993e-20)
(9.68486 0.21304 1.32666e-19)
(9.49467 0.231654 1.07981e-19)
(9.56646 0.250703 -1.34888e-19)
(9.34676 0.267434 -2.24982e-19)
(9.43003 0.291079 2.44113e-19)
(9.17966 0.306288 -1.31919e-19)
(9.27515 0.334736 -3.95933e-19)
(8.99266 0.348648 1.43567e-19)
(9.10136 0.382203 1.48497e-19)
(8.78491 0.394951 -3.79497e-20)
(8.908 0.433998 -3.43914e-19)
(8.55543 0.44564 -3.37631e-19)
(8.6943 0.490657 3.12015e-19)
(8.30311 0.501139 1.82049e-20)
(8.45938 0.552713 -3.32896e-19)
(8.02673 0.561831 3.36527e-19)
(8.2022 0.620678 2.57463e-19)
(7.72504 0.628018 -9.47374e-20)
(7.9217 0.695007 -8.71703e-20)
(7.39677 0.699857 7.04789e-19)
(7.61678 0.776039 -9.34201e-20)
(7.04068 0.77727 -4.81377e-20)
(7.28629 0.863929 1.35898e-18)
(6.65569 0.85983 -2.49711e-19)
(6.92914 0.958519 -1.79146e-18)
(6.24102 0.946637 -3.73701e-19)
(6.54434 1.05918 2.40824e-18)
(5.79633 1.03617 -8.83311e-19)
(6.13112 1.16469 -2.6092e-18)
(5.32193 1.12609 2.05125e-18)
(5.68913 1.27302 0)
(4.8191 1.21298 -2.32631e-18)
(5.2185 1.38102 2.02398e-18)
(4.29037 1.29207 2.6942e-18)
(4.72016 1.48411 -4.2671e-18)
(3.74 1.35683 1.23941e-18)
(4.19602 1.57584 6.29183e-18)
(3.17466 1.39794 -1.05404e-19)
(3.6493 1.64715 -4.86734e-18)
(2.60388 1.40099 9.41071e-19)
(3.08434 1.68488 9.99968e-18)
(2.03722 1.33898 -4.14469e-18)
(2.50662 1.66876 9.94451e-19)
(1.46406 1.1695 3.50353e-22)
(1.91148 1.56566 -2.22299e-17)
(0.832567 0.862196 9.96343e-19)
(1.27899 1.34379 1.29804e-17)
(0.733652 0.963832 2.74708e-18)
(9.98621 0.0676302 -5.87273e-20)
(9.98894 0.0501861 -1.18943e-19)
(9.95259 0.106532 -3.12603e-20)
(9.9702 0.0959427 3.00513e-20)
(9.89822 0.143895 6.54239e-20)
(9.9299 0.138023 -6.14067e-20)
(9.82527 0.182252 -4.78664e-21)
(9.86716 0.180299 3.1538e-20)
(9.73456 0.222382 -6.12002e-20)
(9.78544 0.224379 -3.25061e-20)
(9.62623 0.264692 -1.04792e-19)
(9.68665 0.27072 3.31155e-20)
(9.50026 0.30973 6.79833e-21)
(9.57098 0.319815 -2.70059e-19)
(9.35652 0.358136 6.38494e-20)
(9.43797 0.372334 2.75148e-19)
(9.19467 0.410543 -1.07616e-19)
(9.28729 0.428989 -5.92805e-22)
(9.01421 0.467559 -3.46106e-19)
(9.11867 0.490446 2.55429e-19)
(8.81456 0.529792 1.54499e-20)
(8.93161 0.557353 -3.02214e-19)
(8.59501 0.597864 3.07599e-19)
(8.72555 0.630379 -3.05971e-19)
(8.35476 0.672386 -8.51983e-20)
(8.49983 0.710213 3.96844e-19)
(8.09292 0.753925 -1.71234e-19)
(8.25372 0.797518 -6.65673e-19)
(7.80857 0.842962 -8.59521e-20)
(7.98645 0.892884 6.77433e-19)
(7.50073 0.939828 5.8137e-19)
(7.69717 0.996808 0)
(7.16837 1.04459 -4.28746e-19)
(7.38501 1.10961 7.5775e-19)
(6.81049 1.15687 9.25639e-19)
(7.0491 1.23125 -2.13727e-18)
(6.42616 1.27573 1.03706e-19)
(6.68847 1.36115 3.64467e-18)
(6.01461 1.39943 -1.69026e-18)
(6.30216 1.49807 -1.71424e-18)
(5.57536 1.52517 0)
(5.88937 1.63979 4.30484e-19)
(5.1083 1.64868 0)
(5.44931 1.78275 -3.63613e-18)
(4.61394 1.76384 -5.33547e-19)
(4.98139 1.92161 4.23986e-18)
(4.09349 1.86207 4.79362e-20)
(4.48517 2.04871 4.67982e-19)
(3.54875 1.93144 5.40293e-18)
(3.96032 2.15343 5.62528e-19)
(2.98095 1.95524 9.96298e-18)
(3.40608 2.2214 1.37408e-17)
(2.38656 1.90899 -1.72245e-17)
(2.82056 2.23388 4.62195e-18)
(1.75066 1.76524 -9.10272e-18)
(2.19717 2.16553 -3.24515e-17)
(1.04445 1.51034 1.45504e-17)
(1.50238 1.99795 2.49384e-17)
(0.861228 1.70952 -1.19175e-17)
(9.98421 0.0791511 -2.80131e-20)
(9.98834 0.0574058 -4.89676e-23)
(9.95018 0.127769 -1.48437e-21)
(9.96871 0.111972 -1.13828e-22)
(9.89671 0.175056 -9.38857e-20)
(9.92846 0.164005 6.10035e-20)
(9.82508 0.223306 2.85444e-21)
(9.86691 0.216199 -1.25051e-19)
(9.73615 0.273683 6.27944e-20)
(9.78704 0.270326 3.25048e-22)
(9.63017 0.326838 -1.36632e-19)
(9.69059 0.327164 -6.54184e-20)
(9.50712 0.38343 6.28173e-21)
(9.57777 0.387349 -6.87406e-20)
(9.36686 0.444195 2.06712e-19)
(9.44814 0.451648 1.36965e-19)
(9.20915 0.509874 3.66177e-19)
(9.30146 0.520867 9.84436e-22)
(9.03362 0.581187 2.91392e-19)
(9.13754 0.595776 2.92308e-19)
(8.83983 0.65885 -6.23714e-19)
(8.95597 0.677144 3.25311e-21)
(8.62723 0.743598 -2.06889e-19)
(8.75631 0.765754 -6.67431e-21)
(8.39523 0.836164 -1.98625e-19)
(8.538 0.8624 -3.04722e-19)
(8.14319 0.937238 2.01862e-19)
(8.30053 0.967858 -5.81888e-19)
(7.87044 1.04743 7.54134e-19)
(8.04331 1.08284 7.64981e-19)
(7.57626 1.16721 1.86885e-19)
(7.76563 1.20797 0)
(7.2599 1.2968 -9.91119e-19)
(7.46682 1.3437 1.84391e-19)
(6.92049 1.43596 6.61024e-19)
(7.14625 1.49017 -1.34314e-18)
(6.55713 1.58382 1.75447e-18)
(6.80296 1.64696 2.74938e-18)
(6.16882 1.73867 4.36324e-19)
(6.43584 1.8129 -5.18768e-18)
(5.7545 1.89758 -3.25908e-18)
(6.04379 1.9859 3.30818e-18)
(5.313 2.05598 6.99997e-19)
(5.62536 2.16236 -3.63944e-18)
(4.84297 2.20715 5.19921e-18)
(5.17866 2.33681 3.79186e-18)
(4.34272 2.34164 9.84758e-19)
(4.70128 2.50131 5.23348e-19)
(3.8098 2.4467 9.032e-18)
(4.19002 2.64489 0)
(3.24018 2.50586 8.32531e-18)
(3.64051 2.75319 8.42723e-18)
(2.62637 2.4981 -1.08577e-17)
(3.04686 2.80852 -5.40158e-19)
(1.95596 2.40239 1.84521e-18)
(2.4036 2.78832 -2.04169e-17)
(1.21428 2.20545 -2.01598e-18)
(1.67909 2.67706 2.17181e-17)
(0.971295 2.44991 -1.29084e-17)
(9.9833 0.0910064 2.78546e-20)
(9.98809 0.0650411 5.93168e-20)
(9.94914 0.14879 6.33445e-20)
(9.96817 0.128066 2.94592e-20)
(9.89675 0.205743 2.70194e-20)
(9.92836 0.18947 1.52347e-19)
(9.82682 0.263847 -1.25714e-19)
(9.86826 0.251257 -6.22767e-20)
(9.74012 0.324407 -1.28876e-19)
(9.79059 0.315141 1.89266e-19)
(9.63692 0.388255 2.4387e-21)
(9.69691 0.382143 -2.58414e-19)
(9.51722 0.456161 6.49636e-20)
(9.58739 0.453074 3.30312e-19)
(9.38087 0.52894 -7.07518e-20)
(9.46164 0.528783 -5.3934e-19)
(9.22772 0.607425 -6.87501e-20)
(9.31952 0.610132 2.74537e-19)
(9.05747 0.692442 0)
(9.16086 0.698 0)
(8.86972 0.784825 6.20275e-19)
(8.98531 0.793272 0)
(8.664 0.885406 -1.08539e-19)
(8.79245 0.896834 6.1177e-19)
(8.43984 0.995019 -6.92071e-19)
(8.58184 1.00955 -8.32981e-20)
(8.19674 1.11447 0)
(8.35302 1.1323 -7.875e-19)
(7.93411 1.24449 0)
(8.10547 1.26592 -1.62561e-19)
(7.65133 1.38566 0)
(7.83854 1.41116 0)
(7.34778 1.53836 -1.88273e-19)
(7.55157 1.56856 0)
(7.02272 1.70255 8.00286e-19)
(7.24402 1.73846 1.25685e-18)
(6.67511 1.87753 -4.29893e-18)
(6.9149 1.9207 2.3897e-19)
(6.30373 2.06174 -2.20971e-18)
(6.5629 2.11432 -5.18886e-18)
(5.9071 2.25245 2.84345e-18)
(6.18659 2.31746 2.88028e-18)
(5.48313 2.44521 -4.57266e-19)
(5.78388 2.52687 -4.08816e-19)
(5.02901 2.63338 -9.2502e-19)
(5.35187 2.73743 -8.76704e-19)
(4.54089 2.80751 -4.67995e-19)
(4.88664 2.94151 -3.11318e-20)
(4.01358 2.95492 -5.23656e-19)
(4.38293 3.12843 4.61844e-19)
(3.44038 3.05948 -5.14578e-19)
(3.83415 3.2839 -5.12858e-19)
(2.81313 3.10135 -1.02359e-17)
(3.23233 3.39007 -8.82053e-18)
(2.12293 3.05938 -2.87179e-19)
(2.57351 3.42388 -4.81175e-19)
(1.36737 2.91205 1.03319e-17)
(1.83383 3.36442 9.42593e-18)
(1.07605 3.17276 1.05102e-17)
(9.98302 0.102962 6.04928e-20)
(9.98804 0.0728069 1.17625e-19)
(9.94913 0.169503 1.20366e-19)
(9.96827 0.144037 -1.78754e-19)
(9.89803 0.235708 5.97966e-20)
(9.92927 0.214317 6.07314e-20)
(9.83014 0.303314 2.56489e-19)
(9.87091 0.285306 6.14352e-20)
(9.74606 0.373678 5.31199e-20)
(9.79577 0.358618 2.53064e-19)
(9.64608 0.447802 7.81029e-20)
(9.70525 0.435432 -3.20514e-19)
(9.53023 0.526578 -2.86653e-19)
(9.59949 0.51671 4.61244e-19)
(9.39845 0.610901 -1.82388e-19)
(9.47824 0.603378 -8.05323e-19)
(9.25057 0.70169 3.39441e-19)
(9.34136 0.696375 3.44372e-19)
(9.08632 0.799877 0)
(9.18867 0.79668 7.01149e-19)
(8.90537 0.906396 0)
(9.0199 0.905278 -5.70369e-19)
(8.70729 1.02217 6.27367e-19)
(8.83467 1.02314 5.90876e-19)
(8.49166 1.14811 -1.88166e-19)
(8.6326 1.15123 1.69077e-19)
(8.25799 1.28514 -9.41794e-19)
(8.41321 1.29051 -1.87897e-18)
(8.00572 1.43411 -1.60419e-19)
(8.17596 1.44196 1.42253e-18)
(7.73421 1.59573 0)
(7.92025 1.60646 0)
(7.44281 1.7705 1.46219e-18)
(7.64539 1.78467 0)
(7.13072 1.95864 6.82952e-19)
(7.35059 1.97711 1.44397e-18)
(6.79681 2.15974 -7.19584e-19)
(7.03486 2.18396 -1.0919e-18)
(6.43952 2.37253 3.72092e-21)
(6.69675 2.40463 7.39722e-19)
(6.05684 2.59465 -4.1384e-19)
(6.33425 2.63759 2.67562e-18)
(5.64591 2.82218 -8.3394e-19)
(5.94467 2.88022 -3.52374e-18)
(5.20274 3.04899 2.65525e-20)
(5.52422 3.12805 3.23993e-18)
(4.72193 3.26617 9.04376e-19)
(5.06771 3.3742 3.42371e-18)
(4.19652 3.46129 4.64112e-19)
(4.56835 3.6085 7.83893e-20)
(3.61831 3.618 -8.88819e-18)
(4.01789 3.8167 -6.81725e-18)
(2.97897 3.71535 9.96655e-19)
(3.40675 3.9798 -8.57406e-18)
(2.27236 3.72797 9.28163e-18)
(2.73105 4.07205 9.40762e-18)
(1.50212 3.61964 9.62137e-18)
(1.97513 4.06317 1.19532e-19)
(1.17438 3.89181 1.00737e-17)
(9.98312 0.11482 -1.25902e-19)
(9.98812 0.0805263 -8.77402e-20)
(9.94988 0.189757 -2.34736e-19)
(9.96882 0.15971 -2.67761e-19)
(9.90031 0.264785 6.23909e-20)
(9.93097 0.238427 1.19666e-23)
(9.83476 0.341508 6.08656e-20)
(9.87462 0.318198 -6.10562e-20)
(9.75368 0.421307 -1.29056e-19)
(9.80233 0.400561 6.2666e-20)
(9.65738 0.505307 7.40539e-20)
(9.71538 0.48679 -9.61953e-22)
(9.54594 0.59451 -7.57522e-20)
(9.61388 0.577959 2.61616e-19)
(9.41933 0.689897 -2.62113e-19)
(9.49768 0.675087 1.30701e-19)
(9.2774 0.792469 7.11137e-19)
(9.36665 0.779203 -1.34147e-19)
(9.11992 0.903252 1.13037e-19)
(9.22064 0.891368 9.79549e-19)
(8.94659 1.02327 3.65733e-20)
(9.05942 1.01265 -1.1322e-18)
(8.75707 1.15355 1.26797e-19)
(8.88268 1.14411 7.35026e-19)
(8.5509 1.29508 -1.55001e-18)
(8.69008 1.28683 1.43517e-19)
(8.32758 1.44891 5.29973e-19)
(8.48109 1.44188 -2.76253e-18)
(8.08654 1.61604 1.56477e-18)
(8.25513 1.61036 3.91597e-18)
(7.82712 1.79731 0)
(8.01168 1.79331 -1.26767e-18)
(7.5485 1.99339 0)
(7.74996 1.99158 0)
(7.24971 2.20477 -3.63583e-19)
(7.46887 2.20588 -1.34824e-18)
(6.9295 2.43143 3.90518e-19)
(7.16734 2.43674 1.00987e-18)
(6.58593 2.67256 3.43627e-18)
(6.84372 2.68409 -2.10756e-18)
(6.21636 2.92636 -5.03893e-19)
(6.49542 2.94699 5.93212e-18)
(5.81717 3.18968 6.23531e-19)
(6.11909 3.22357 -2.37294e-18)
(5.38331 3.45724 6.64351e-18)
(5.71006 3.51032 6.7517e-18)
(4.90808 3.72092 2.56726e-18)
(5.26197 3.80134 -5.59833e-19)
(4.383 3.9687 -7.26729e-18)
(4.76653 4.08737 -3.84322e-19)
(3.79835 4.1836 -6.51584e-18)
(4.21366 4.35427 -6.82805e-18)
(3.14489 4.34226 -1.68314e-20)
(3.59168 4.58161 4.71566e-19)
(2.41699 4.41287 1.66618e-19)
(2.89438 4.7398 7.45458e-18)
(1.61886 4.33962 7.27728e-19)
(2.1106 4.78796 -7.91368e-18)
(1.26642 4.63309 3.28802e-19)
(9.98348 0.126433 -2.32256e-19)
(9.98829 0.0880809 -8.83159e-20)
(9.95119 0.209414 -2.88944e-20)
(9.9697 0.174938 8.89957e-20)
(9.90342 0.292843 -1.24357e-19)
(9.93328 0.261676 1.79507e-19)
(9.84049 0.378268 -5.74227e-20)
(9.87923 0.349791 -6.18681e-20)
(9.76279 0.467091 1.89844e-19)
(9.8101 0.440779 6.23363e-20)
(9.67061 0.560523 1.9044e-19)
(9.72709 0.535976 1.27304e-19)
(9.56408 0.659659 4.66212e-19)
(9.63032 0.636545 -3.18419e-19)
(9.4432 0.76557 2.54997e-19)
(9.51967 0.743598 5.27913e-19)
(9.30786 0.879342 1.49843e-19)
(9.39506 0.858249 -8.00351e-19)
(9.15786 1.00208 -2.95111e-19)
(9.25639 0.981631 6.85307e-19)
(8.99298 1.13489 -4.08144e-19)
(9.10347 1.11489 -7.00194e-19)
(8.81287 1.27891 7.43761e-19)
(8.93604 1.25919 1.72024e-21)
(8.61712 1.43526 -1.10773e-18)
(8.75379 1.41573 1.03095e-18)
(8.4052 1.60509 7.11642e-19)
(8.55622 1.58572 -2.41038e-18)
(8.17654 1.78953 1.01606e-18)
(8.34274 1.77035 2.48211e-18)
(7.93046 1.98964 -1.2521e-18)
(8.11283 1.97083 -1.42273e-18)
(7.66598 2.20631 -1.36556e-18)
(7.86567 2.1883 0)
(7.38191 2.44031 5.36708e-20)
(7.59995 2.42372 -1.34953e-18)
(7.07674 2.6921 -1.5255e-18)
(7.3144 2.67798 1.37061e-18)
(6.7482 2.9615 4.77927e-19)
(7.00709 2.95166 -3.18844e-18)
(6.39305 3.24751 3.97391e-18)
(6.67501 3.24461 3.25726e-18)
(6.00685 3.54792 3.85427e-18)
(6.31416 3.55592 3.23243e-18)
(5.58353 3.85863 -5.28191e-19)
(5.91901 3.88332 -2.71149e-18)
(5.11502 4.17266 -3.51282e-18)
(5.48194 4.22232 -2.11675e-19)
(4.59104 4.47876 0)
(4.99293 4.56504 0)
(3.99956 4.75946 2.27395e-19)
(4.43946 4.89812 0)
(3.32874 4.98869 8.01715e-18)
(3.80654 5.20019 2.25268e-19)
(2.57064 5.12756 -8.13428e-19)
(3.08291 5.43784 7.60073e-18)
(1.72476 5.09905 -8.18615e-18)
(2.25452 5.56063 -8.29167e-18)
(1.3573 5.43688 1.24578e-21)
(9.98403 0.137684 2.35471e-19)
(9.98851 0.095386 1.46224e-19)
(9.95295 0.228349 2.98805e-19)
(9.97082 0.189599 2.06359e-19)
(9.90722 0.319749 2.38391e-19)
(9.9361 0.283943 1.79478e-19)
(9.84718 0.413434 5.97511e-20)
(9.88461 0.379948 -1.80986e-19)
(9.7732 0.510824 7.37047e-22)
(9.81893 0.479098 -2.4533e-19)
(9.68555 0.613196 -3.88063e-19)
(9.74021 0.582775 6.24403e-19)
(9.5844 0.721731 -2.44698e-19)
(9.64858 0.692216 -5.09158e-19)
(9.46977 0.837581 -5.46279e-19)
(9.54396 0.808616 -1.27802e-19)
(9.34161 0.961909 -2.44263e-19)
(9.42631 0.933163 -4.04283e-19)
(9.19979 1.0959 2.61231e-19)
(9.29559 1.06706 5.40707e-19)
(9.04409 1.24074 -2.80708e-19)
(9.15166 1.21154 1.3468e-19)
(8.87424 1.39767 3.02632e-19)
(8.99432 1.36785 4.1705e-19)
(8.68986 1.56795 -3.16974e-19)
(8.82329 1.53731 1.31146e-20)
(8.49047 1.75285 -5.76462e-19)
(8.63815 1.72125 -7.3898e-19)
(8.2755 1.95365 -7.19513e-21)
(8.43838 1.921 1.04228e-18)
(8.0442 2.17163 -1.52259e-19)
(8.22341 2.13796 -1.05235e-18)
(7.79556 2.408 0)
(7.99238 2.37355 0)
(7.52819 2.66387 0)
(7.74401 2.6291 0)
(7.24029 2.94024 -3.44929e-19)
(7.47676 2.90594 0)
(6.9293 3.2377 -3.37314e-19)
(7.18846 3.20531 2.10099e-18)
(6.59148 3.55624 2.51391e-18)
(6.87586 3.52806 1.78468e-20)
(6.22167 3.89492 -3.39757e-18)
(6.53443 3.87448 2.50533e-18)
(5.81274 4.25117 -2.37226e-18)
(6.15786 4.24391 -8.52915e-18)
(5.35504 4.61975 3.30712e-18)
(5.73728 4.63383 3.16989e-18)
(4.83598 4.99097 0)
(5.26069 5.03864 0)
(4.24005 5.34789 0)
(4.71244 5.44708 -5.82562e-18)
(3.55058 5.66244 -1.11112e-19)
(4.07262 5.8384 1.2021e-17)
(2.75359 5.88973 -7.82567e-20)
(3.32213 6.17692 -6.40649e-18)
(1.83823 5.9307 1.25433e-20)
(2.43422 6.4058 -2.17822e-20)
(1.46249 6.35518 -7.41455e-18)
(9.98472 0.148481 1.17917e-19)
(9.98879 0.102378 1.2966e-22)
(9.95507 0.246447 8.66067e-20)
(9.97214 0.203591 5.85831e-20)
(9.91161 0.345378 -2.45326e-19)
(9.93934 0.305115 -5.92344e-20)
(9.85472 0.446853 -4.87065e-19)
(9.89065 0.408538 -2.41679e-19)
(9.78476 0.552316 3.91061e-19)
(9.82868 0.515358 -1.23404e-19)
(9.70202 0.663102 4.8705e-19)
(9.75457 0.626991 4.99945e-19)
(9.60666 0.780459 -3.86838e-19)
(9.66845 0.744738 -6.75002e-22)
(9.49878 0.905616 1.03398e-20)
(9.57029 0.869862 -2.59085e-19)
(9.37836 1.0398 3.93912e-19)
(9.4601 1.00362 -2.58756e-19)
(9.24532 1.18428 4.08602e-19)
(9.33789 1.14728 6.59147e-19)
(9.09953 1.34032 8.36448e-19)
(9.20359 1.30215 1.38383e-19)
(8.94075 1.50925 1.22278e-19)
(9.05707 1.46956 1.06338e-20)
(8.76868 1.69246 -4.18798e-19)
(8.8981 1.65093 -4.29932e-19)
(8.58293 1.89136 9.03018e-19)
(8.72638 1.84771 5.6388e-19)
(8.38293 2.10738 -2.88678e-20)
(8.54147 2.06139 1.03664e-18)
(8.16796 2.34208 -8.87586e-19)
(8.34282 2.29358 1.29161e-19)
(7.93699 2.59697 0)
(8.12961 2.54598 -1.18474e-18)
(7.68857 2.87362 0)
(7.90063 2.82032 -1.2115e-18)
(7.42072 3.17361 2.47065e-18)
(7.65428 3.11843 1.22053e-18)
(7.13069 3.49841 2.43589e-18)
(7.38829 3.4423 2.60123e-18)
(6.81442 3.84923 3.42916e-20)
(7.09932 3.79386 1.78669e-20)
(6.46622 4.22671 -2.73688e-18)
(6.78261 4.17489 -1.40969e-19)
(6.07801 4.63034 -2.87251e-18)
(6.43132 4.58674 -2.56886e-18)
(5.63854 5.05749 -1.70095e-19)
(6.03563 5.02962 -2.76334e-18)
(5.13249 5.50141 -5.88931e-18)
(5.58169 5.50143 2.70441e-18)
(4.53977 5.94764 6.40602e-18)
(5.05031 5.99503 -3.17211e-18)
(3.8362 6.3686 5.47812e-18)
(4.41512 6.4936 9.31013e-18)
(2.99695 6.71594 -6.25145e-18)
(3.64599 6.96282 -6.28947e-18)
(1.99662 6.86977 -7.5602e-18)
(2.69175 7.34288 -4.89213e-20)
(1.60983 7.42692 -7.40483e-18)
(9.98551 0.15875 -5.83763e-20)
(9.9891 0.109007 -2.89908e-20)
(9.95747 0.26361 -8.90882e-20)
(9.97363 0.216831 2.88036e-20)
(9.91649 0.369614 -5.82962e-20)
(9.94291 0.325089 -1.18028e-19)
(9.863 0.478386 1.23778e-19)
(9.89725 0.435442 0)
(9.79734 0.591399 -5.45401e-21)
(9.83923 0.549412 1.47404e-21)
(9.71982 0.710035 4.96044e-21)
(9.77001 0.668447 -1.23868e-19)
(9.63064 0.8356 1.23485e-19)
(9.68974 0.793897 6.58874e-22)
(9.52994 0.969387 -5.28215e-19)
(9.59842 0.927083 0)
(9.41776 1.11269 1.89611e-20)
(9.49612 1.06932 -1.03512e-18)
(9.29409 1.26683 3.81927e-19)
(9.38293 1.22194 9.14105e-19)
(9.15885 1.43316 -6.89403e-19)
(9.25883 1.3863 -1.34846e-19)
(9.0119 1.6131 -5.47594e-19)
(9.12379 1.56382 -5.49209e-19)
(8.85303 1.80813 5.6573e-19)
(8.97767 1.756 -6.89429e-19)
(8.68194 2.0198 7.03493e-19)
(8.82027 1.9644 1.1155e-18)
(8.49815 2.24974 1.18381e-18)
(8.65129 2.19066 1.27088e-18)
(8.30101 2.49973 -1.83045e-19)
(8.47027 2.4366 -1.05096e-19)
(8.08958 2.77165 -2.39753e-18)
(8.2765 2.70418 -1.32863e-18)
(7.8625 3.06752 3.61975e-20)
(8.06898 2.99554 -2.23627e-18)
(7.6178 3.38957 1.36602e-18)
(7.84624 3.31305 2.39569e-18)
(7.3527 3.74024 1.54843e-19)
(7.6061 3.65945 2.53513e-18)
(7.06315 4.12206 -1.58767e-19)
(7.34543 4.03782 -2.23939e-18)
(6.74325 4.5376 4.59068e-21)
(7.05965 4.45157 -5.29517e-21)
(6.38445 4.98902 -2.46163e-18)
(6.74198 4.90444 -2.40307e-18)
(5.97432 5.47737 1.66709e-19)
(6.38242 5.40011 -9.84696e-20)
(5.495 6.00072 5.36615e-18)
(5.96609 5.9414 2.63024e-18)
(4.92126 6.55056 -1.28855e-19)
(5.47089 6.5282 2.66179e-18)
(4.21858 7.10492 -2.67132e-18)
(4.8634 7.15305 -2.7137e-18)
(3.34406 7.61763 1.36238e-20)
(4.09914 7.79108 1.12137e-20)
(2.24619 7.95023 2.51982e-21)
(3.08822 8.38784 2.56947e-18)
(1.84522 8.70655 8.93513e-21)
(9.98639 0.168428 5.90811e-20)
(9.98945 0.115234 -2.29341e-19)
(9.96011 0.279752 -2.40344e-21)
(9.97524 0.229246 5.82474e-20)
(9.9218 0.392352 -5.79598e-20)
(9.94677 0.343775 -1.75968e-19)
(9.8719 0.507906 -1.22299e-19)
(9.90432 0.460554 1.18266e-19)
(9.81079 0.62792 -1.18777e-19)
(9.85047 0.581131 -4.13845e-22)
(9.73878 0.75381 -1.26392e-19)
(9.78638 0.706986 0)
(9.65613 0.886934 -1.22868e-19)
(9.71225 0.839505 -1.24629e-19)
(9.56299 1.02863 -5.21238e-19)
(9.6281 0.980059 0)
(9.45949 1.18026 -1.13466e-19)
(9.53408 1.13001 -1.32959e-19)
(9.34568 1.34318 3.83257e-19)
(9.43033 1.29072 -1.23088e-19)
(9.22158 1.51882 0)
(9.31694 1.46363 -3.92149e-19)
(9.08714 1.70867 -6.92861e-19)
(9.19395 1.65019 3.94372e-19)
(8.94226 1.9143 -1.17054e-19)
(9.06135 1.85198 -6.84203e-19)
(8.78677 2.13738 1.68503e-18)
(8.91908 2.07065 6.86056e-19)
(8.62032 2.37973 -3.47232e-20)
(8.76698 2.30799 1.12678e-18)
(8.44244 2.64333 -1.26556e-18)
(8.60476 2.56596 -2.59176e-20)
(8.25236 2.93039 -1.1773e-18)
(8.43196 2.84679 -9.77396e-19)
(8.04896 3.2434 1.74493e-19)
(8.24784 3.15295 -1.02676e-18)
(7.83052 3.58524 3.56712e-18)
(8.05125 3.48735 1.03478e-18)
(7.59455 3.95927 9.17263e-20)
(7.84044 3.85342 2.23989e-18)
(7.33737 4.36945 -2.06413e-18)
(7.61282 4.25531 -2.50976e-19)
(7.05351 4.82037 -2.43814e-18)
(7.36457 4.69806 -4.39075e-18)
(6.73478 5.31737 -1.59205e-20)
(7.08981 5.18785 -2.9784e-19)
(6.36874 5.86619 2.39298e-18)
(6.77967 5.7323 2.56884e-18)
(5.93637 6.47203 -7.59429e-20)
(6.42022 6.34046 -7.6831e-20)
(5.40827 7.13722 9.33758e-21)
(5.98921 7.02237 -5.19019e-22)
(4.73857 7.85486 9.08489e-21)
(5.44909 7.78737 -3.44217e-21)
(3.85741 8.59584 2.61258e-18)
(4.74154 8.63597 7.81468e-21)
(2.66007 9.2221 2.53152e-18)
(3.72488 9.54633 4.60364e-18)
(2.25905 10.2994 -2.26419e-18)
(9.98734 0.177467 -2.2606e-19)
(9.98982 0.121026 -2.10494e-22)
(9.96294 0.294797 -1.18918e-19)
(9.97695 0.240779 0)
(9.92745 0.413499 4.64368e-21)
(9.95086 0.361097 -1.1714e-19)
(9.88133 0.535304 2.3843e-19)
(9.91178 0.483779 1.18285e-19)
(9.82498 0.661745 1.18393e-19)
(9.86228 0.610404 1.20138e-19)
(9.75874 0.794271 0)
(9.80354 0.742473 2.41104e-19)
(9.68288 0.934276 0)
(9.73578 0.881404 -2.43184e-19)
(9.59764 1.08314 3.86538e-19)
(9.65908 1.0286 2.47216e-19)
(9.50318 1.24226 -1.42381e-19)
(9.57365 1.18545 2.57466e-19)
(9.39967 1.41304 -9.02308e-19)
(9.4797 1.35338 -5.1175e-19)
(9.2872 1.59695 1.24225e-20)
(9.37742 1.53382 -5.20735e-19)
(9.16584 1.79554 3.89416e-19)
(9.26696 1.7283 6.53353e-19)
(9.03564 2.01045 1.36177e-19)
(9.14845 1.93842 5.24698e-19)
(8.89655 2.24345 1.32852e-19)
(9.02196 2.16591 -1.58562e-18)
(8.74845 2.49649 1.1221e-18)
(8.88754 2.41265 1.06447e-18)
(8.59108 2.77174 2.51938e-19)
(8.74513 2.68074 1.10916e-18)
(8.42398 3.07168 -8.2736e-19)
(8.59456 2.97257 1.12447e-19)
(8.24639 3.39921 -1.43983e-19)
(8.43549 3.2909 -1.35902e-18)
(8.05708 3.75775 -2.80922e-19)
(8.26727 3.63903 1.08608e-18)
(7.85422 4.1515 1.87263e-18)
(8.08883 4.02097 -4.05394e-21)
(7.635 4.58566 -2.61931e-18)
(7.89855 4.4417 9.76784e-19)
(7.39517 5.06678 -2.2096e-18)
(7.69396 4.90757 -4.54538e-18)
(7.12813 5.60333 2.31529e-18)
(7.47113 5.42691 2.29976e-18)
(6.82344 6.20622 7.05265e-20)
(7.22404 6.01091 6.32981e-20)
(6.46413 6.88954 -5.25105e-22)
(6.94283 6.67494 0)
(6.02138 7.67141 -1.33263e-20)
(6.61099 7.44075 -2.53189e-23)
(5.44362 8.57385 -4.54099e-21)
(6.19767 8.34077 -8.84497e-21)
(4.63252 9.62095 2.07641e-18)
(5.64894 9.4241 5.72899e-22)
(3.38781 10.7726 -3.49588e-19)
(4.79831 10.7726 1.24441e-18)
(3.05888 12.4406 -2.82563e-18)
(9.98835 0.185826 2.25889e-19)
(9.99021 0.12636 1.88629e-20)
(9.96592 0.308685 0)
(9.97875 0.251382 -2.16188e-19)
(9.93338 0.432975 0)
(9.95514 0.376991 0)
(9.8912 0.560476 0)
(9.91956 0.505042 -1.10608e-19)
(9.83979 0.692745 2.44596e-19)
(9.87457 0.637138 1.84223e-22)
(9.77951 0.831253 -8.92272e-21)
(9.82136 0.7748 2.45678e-19)
(9.71069 0.977423 1.08474e-20)
(9.76019 0.919466 -2.47803e-19)
(9.6336 1.13266 1.18282e-19)
(9.69121 1.07256 2.03076e-20)
(9.5485 1.29839 -1.22251e-19)
(9.61466 1.23549 1.07083e-19)
(9.45562 1.47604 -1.30157e-19)
(9.53086 1.4097 0)
(9.35517 1.66712 1.3541e-19)
(9.44009 1.59664 -6.09825e-19)
(9.24735 1.87321 7.87044e-19)
(9.34262 1.79785 6.2421e-19)
(9.13235 2.09598 -1.22349e-18)
(9.23872 2.01497 6.55914e-19)
(9.01032 2.33728 -6.2219e-19)
(9.12866 2.24974 -1.75318e-18)
(8.88136 2.59913 1.05211e-18)
(9.01269 2.50411 9.39997e-20)
(8.74551 2.88383 9.5847e-19)
(8.89103 2.78023 -1.26007e-19)
(8.60268 3.19405 -4.35338e-19)
(8.76386 3.08059 9.63925e-19)
(8.45262 3.53294 -1.02064e-19)
(8.63132 3.40812 -2.57402e-19)
(8.29481 3.90434 1.35206e-18)
(8.49341 3.76631 2.18586e-18)
(8.12837 4.31301 -8.90019e-19)
(8.34997 4.1595 -8.56089e-19)
(7.95188 4.76504 -1.00446e-18)
(8.20066 4.59312 7.12682e-20)
(7.76309 5.26841 3.30376e-20)
(8.04487 5.07427 -1.94408e-18)
(7.55842 5.83397 2.42582e-20)
(7.88158 5.61248 9.62865e-19)
(7.33206 6.47689 -7.915e-21)
(7.70926 6.22103 1.34931e-20)
(7.07416 7.21929 4.98047e-22)
(7.52563 6.91922 -8.50139e-19)
(6.76677 8.09564 4.31654e-21)
(7.32768 7.73681 8.63306e-19)
(6.37362 9.1655 -3.54222e-21)
(7.11113 8.72473 -4.33314e-20)
(5.80669 10.5568 -8.03425e-19)
(6.88641 9.98472 7.47448e-20)
(4.80172 12.7687 -1.21987e-18)
(6.79372 11.7864 -6.98883e-19)
(5.98671 15.665 -6.91634e-19)
(0.178249 -0.0967929 2.40079e-21)
(0.0945587 -0.160588 -3.75397e-20)
(0.380989 -0.0963713 2.45901e-21)
(0.278507 -0.173981 3.79194e-20)
(0.566052 -0.0806408 6.86357e-21)
(0.465491 -0.152559 0)
(0.719029 -0.0616888 -2.13314e-21)
(0.634747 -0.122958 3.30941e-20)
(0.837594 -0.0433961 -1.38083e-20)
(0.7742 -0.0936756 -3.1849e-20)
(0.922564 -0.0264921 -1.82243e-22)
(0.881739 -0.0662211 -4.23586e-21)
(0.975111 -0.0110614 4.88522e-21)
(0.95881 -0.0404189 4.17531e-21)
(0.997035 0.00231139 -3.53301e-22)
(1.00713 -0.0165909 3.38492e-23)
(0.992092 0.0126261 0)
(1.02874 0.00385085 0)
(0.964202 0.0197682 -4.09509e-22)
(1.02513 0.0208675 0)
(0.919839 0.0242256 -2.78416e-22)
(1.00055 0.0326702 -7.79309e-22)
(0.864668 0.0261894 -2.27937e-22)
(0.960998 0.0400194 2.2054e-22)
(0.804528 0.0258774 1.70611e-22)
(0.912636 0.0429538 6.06957e-22)
(0.744757 0.0236828 2.09701e-22)
(0.861263 0.042016 -1.6327e-22)
(0.689735 0.0201162 -2.65262e-22)
(0.811826 0.0380503 5.28508e-22)
(0.642758 0.0157135 4.10496e-22)
(0.768174 0.0319499 -4.61505e-22)
(0.606054 0.0109717 1.50123e-22)
(0.733047 0.0245446 5.47863e-23)
(0.580966 0.00624967 0)
(0.708217 0.0164964 -6.01212e-22)
(0.568304 0.00152936 -8.77783e-23)
(0.694607 0.00819417 -5.11958e-22)
(0.569475 -0.003368 1.21895e-24)
(0.692382 -0.000715258 3.36745e-22)
(0.584218 -0.00765176 -8.66959e-23)
(0.700833 -0.00915043 2.73079e-22)
(0.609421 -0.0102108 -1.82539e-22)
(0.718548 -0.0153856 -8.07631e-22)
(0.640214 -0.010952 4.18999e-23)
(0.743096 -0.0184742 5.2527e-22)
(0.672085 -0.0104473 8.08728e-23)
(0.771296 -0.0187892 -1.69031e-22)
(0.70224 -0.00945465 3.89005e-23)
(0.799899 -0.0174699 -7.65805e-23)
(0.72982 -0.00859156 1.52953e-23)
(0.826654 -0.0157022 6.69422e-23)
(0.75553 -0.00817981 2.74015e-23)
(0.850804 -0.014388 -1.14841e-22)
(0.780839 -0.00811806 1.19213e-23)
(0.872872 -0.0139247 5.87776e-23)
(0.806598 -0.00791666 0)
(0.893905 -0.013937 0)
(0.919649 -0.0132292 0)
(0.172328 -0.259103 -8.40608e-21)
(0.077878 -0.332858 2.79629e-20)
(0.368132 -0.250903 3.67518e-20)
(0.253835 -0.343526 3.37975e-20)
(0.54715 -0.212527 2.57348e-20)
(0.422226 -0.299931 0)
(0.699225 -0.168721 -4.64117e-22)
(0.576435 -0.244707 2.30083e-20)
(0.823298 -0.126865 -2.28885e-20)
(0.705415 -0.191308 -4.33888e-20)
(0.920449 -0.0878529 2.85687e-22)
(0.808536 -0.14163 3.55582e-20)
(0.991817 -0.0514486 -5.73591e-22)
(0.887535 -0.0950818 -1.43261e-20)
(1.03814 -0.0180974 3.52503e-22)
(0.943749 -0.05155 4.75104e-21)
(1.0597 0.0105407 0)
(0.978324 -0.0120889 -5.22912e-21)
(1.05885 0.032875 -3.63527e-22)
(0.991749 0.0217341 -3.5826e-22)
(1.03899 0.0484021 -3.56962e-22)