/*--------------------------------*- C++ -*----------------------------------*\
| =========                 |                                                 |
| \\      /  F ield         | OpenFOAM: The Open Source CFD Toolbox           |
|  \\    /   O peration     | Version:  5.x                                   |
|   \\  /    A nd           | Web:      www.OpenFOAM.org                      |
|    \\/     M anipulation  |                                                 |
\*---------------------------------------------------------------------------*/
FoamFile
{
    version     2.0;
    format      ascii;
    class       surfaceVectorField;
    location    "1.3";
    object      Uf;
}
// * * * * * * * * * * * * * * * * * * * * * * * * * * * * * * * * * * * * * //

dimensions      [0 1 -1 0 0 0 0];

internalField   nonuniform List<vector> 
5457
(
(9.91407 8.16253e-20 0.0222432)
(9.96884 3.43087e-19 0.0357512)
(9.82144 -6.30172e-21 0.0273139)
(9.9317 -2.22119e-20 0.0398327)
(9.7204 -8.10672e-20 0.0313019)
(9.87181 8.11885e-20 0.0451948)
(9.60803 -1.03638e-19 0.0355192)
(9.79408 -2.89997e-19 0.0522747)
(9.48424 -1.2644e-19 0.039897)
(9.70352 4.81248e-20 0.0598458)
(9.34921 1.86472e-21 0.0444468)
(9.60135 -2.32628e-19 0.0677927)
(9.20276 8.44662e-20 0.0492804)
(9.48689 2.72171e-20 0.0763113)
(9.04443 5.5608e-20 0.0545174)
(9.35955 1.5134e-21 0.0855834)
(8.87353 -6.27589e-20 0.0602763)
(9.21897 0 0.0957872)
(8.68917 -6.11608e-20 0.0666733)
(9.06429 -6.16141e-20 0.10712)
(8.49028 6.6763e-20 0.0738217)
(8.89456 2.46309e-19 0.119763)
(8.27569 -7.74379e-20 0.0818446)
(8.70882 -2.51256e-19 0.1339)
(8.04407 9.69684e-21 0.0908853)
(8.50586 -1.73097e-19 0.149745)
(7.79397 1.42032e-19 0.101112)
(8.28431 1.61836e-19 0.167551)
(7.52373 0 0.112716)
(8.04266 -5.84866e-19 0.18761)
(7.23156 -4.27938e-20 0.125908)
(7.77923 5.9791e-19 0.210231)
(6.91554 -1.31569e-19 0.140921)
(7.49216 7.59249e-20 0.235748)
(6.57359 -8.72149e-20 0.158018)
(7.17944 -1.33716e-18 0.264517)
(6.20358 1.00969e-19 0.177482)
(6.83895 1.20342e-18 0.296909)
(5.8033 9.77324e-20 0.199612)
(6.46842 8.1415e-21 0.333277)
(5.37059 -2.2843e-19 0.224719)
(6.06554 -1.55188e-18 0.373941)
(4.90339 1.00691e-18 0.253115)
(5.62798 1.18694e-18 0.41914)
(4.39989 1.55044e-19 0.285098)
(5.15344 9.94912e-19 0.468977)
(3.85865 -2.71491e-18 0.320928)
(4.63975 3.12075e-18 0.523333)
(3.27874 7.44376e-19 0.360707)
(4.08486 -7.00842e-18 0.581738)
(2.66009 4.9956e-18 0.404029)
(3.48677 2.38167e-18 0.643044)
(2.00362 -3.03153e-18 0.448866)
(2.84311 1.1553e-17 0.704634)
(1.31233 -4.17775e-18 0.485802)
(2.14971 -4.33541e-18 0.760092)
(0.587642 1.44494e-18 0.413966)
(1.38228 2.8172e-18 0.793102)
(0.675111 -1.50897e-17 0.686675)
(10.0053 2.32275e-19 0.0427566)
(10 -3.25744e-20 0.033491)
(9.98078 6.75555e-20 0.0543562)
(9.99215 -7.96075e-20 0.0503465)
(9.94071 -1.35615e-19 0.0641928)
(9.96502 -2.09264e-19 0.0630559)
(9.88684 -1.31285e-19 0.074984)
(9.92017 -9.74603e-20 0.0772659)
(9.81906 -6.37213e-20 0.0865635)
(9.86144 -1.48526e-19 0.0925464)
(9.73744 -2.02172e-19 0.098907)
(9.79023 -1.04614e-19 0.108699)
(9.6419 -5.62315e-20 0.112246)
(9.70615 2.11087e-19 0.126024)
(9.5321 -5.41261e-20 0.126853)
(9.60874 -5.62412e-20 0.144867)
(9.40747 0 0.14301)
(9.49771 -1.15002e-19 0.165583)
(9.26724 2.51523e-19 0.160995)
(9.37231 1.1609e-19 0.188548)
(9.11048 -8.07401e-20 0.181081)
(9.23173 1.25931e-19 0.214118)
(8.93612 -3.45541e-19 0.203573)
(9.07514 -2.54653e-19 0.242678)
(8.74293 -1.49927e-20 0.22882)
(8.90145 4.59036e-19 0.274666)
(8.5295 -5.78192e-19 0.25723)
(8.70941 -5.37986e-19 0.310594)
(8.29424 3.36023e-20 0.289256)
(8.49766 -1.71232e-18 0.351057)
(8.03541 7.07718e-19 0.325384)
(8.26465 2.9435e-18 0.396698)
(7.75105 -1.1535e-18 0.366139)
(8.00861 -2.40334e-18 0.448214)
(7.43907 -4.1844e-21 0.412082)
(7.72763 -1.41104e-19 0.506376)
(7.09719 1.09098e-18 0.463777)
(7.41958 1.37037e-18 0.571993)
(6.72302 -1.6661e-18 0.521764)
(7.08217 -9.12653e-20 0.645885)
(6.31401 -9.47923e-20 0.586518)
(6.71288 -1.55124e-18 0.728842)
(5.86755 1.17269e-18 0.658382)
(6.309 4.88948e-18 0.821573)
(5.38094 3.986e-18 0.737494)
(5.86752 -1.673e-19 0.924613)
(4.85137 -1.29427e-18 0.823718)
(5.38512 1.18534e-18 1.03822)
(4.27558 -5.27322e-18 0.916511)
(4.85778 -1.07366e-17 1.1623)
(3.64944 8.9955e-18 1.01458)
(4.28024 1.60545e-17 1.29625)
(2.96592 1.01967e-17 1.11558)
(3.64452 9.6246e-19 1.43875)
(2.20909 2.60208e-18 1.21745)
(2.93708 -1.89921e-18 1.58816)
(1.32804 -1.4139e-17 1.32464)
(2.11751 -1.76019e-17 1.7488)
(1.25107 8.60559e-18 1.94861)
(9.99839 -3.4541e-19 0.0441602)
(9.99776 -3.7585e-19 0.0341744)
(9.9778 -3.59272e-19 0.0622421)
(9.98753 6.78531e-20 0.0592382)
(9.9416 -1.68678e-19 0.0788777)
(9.96164 -4.75286e-20 0.0793056)
(9.89275 -1.15716e-19 0.0968252)
(9.9198 9.65554e-20 0.100066)
(9.83152 -1.88531e-19 0.116141)
(9.86477 1.96488e-19 0.122237)
(9.75788 3.14933e-19 0.136855)
(9.79797 1.02879e-19 0.145781)
(9.67174 2.05968e-19 0.159284)
(9.71926 1.38054e-21 0.171032)
(9.57286 -1.18203e-19 0.183838)
(9.62833 2.17794e-19 0.198454)
(9.46077 5.39126e-21 0.210959)
(9.52489 -4.49719e-19 0.228568)
(9.33481 -9.33102e-21 0.24109)
(9.40836 6.98286e-19 0.261908)
(9.19419 -5.49259e-20 0.274682)
(9.27809 -9.60753e-19 0.298986)
(9.038 5.62723e-19 0.312242)
(9.13339 4.32858e-19 0.340364)
(8.86516 -8.15302e-20 0.354352)
(8.97339 6.8507e-19 0.386679)
(8.67447 -1.69271e-18 0.401693)
(8.79702 -1.6286e-18 0.438664)
(8.46456 1.2779e-18 0.455036)
(8.6032 -3.02398e-20 0.49719)
(8.23387 -2.58231e-19 0.51522)
(8.39073 2.3461e-18 0.563219)
(7.98066 -1.35361e-18 0.583164)
(8.15809 -2.4473e-18 0.637806)
(7.70298 1.25882e-18 0.65987)
(7.90367 3.6117e-18 0.722139)
(7.39866 1.64247e-19 0.746383)
(7.62564 -1.17937e-19 0.817505)
(7.06527 0 0.84376)
(7.32196 -2.67771e-18 0.925264)
(6.70011 3.52734e-18 0.953037)
(6.99025 -3.50184e-19 1.04683)
(6.30005 3.47787e-18 1.07515)
(6.62776 3.47424e-18 1.18364)
(5.86147 -2.93825e-18 1.21082)
(6.2312 4.80619e-20 1.33707)
(5.37997 -8.38828e-18 1.36054)
(5.79645 -3.7511e-18 1.50842)
(4.84958 1.07794e-17 1.52469)
(5.31808 -6.24341e-18 1.69899)
(4.26145 8.00103e-18 1.70397)
(4.78838 2.21306e-17 1.91042)
(3.60094 -1.10765e-17 1.90061)
(4.19573 -1.51609e-17 2.14571)
(2.84003 -2.17413e-17 2.11884)
(3.52054 -1.64491e-17 2.41271)
(1.95213 5.94739e-18 2.41921)
(2.75389 1.36868e-17 2.7104)
(1.73742 4.5188e-19 3.23874)
(9.99387 4.60771e-20 0.0496202)
(9.99636 -7.45842e-19 0.0367406)
(9.97341 3.77091e-19 0.0755153)
(9.98414 9.01953e-20 0.0680801)
(9.93799 2.20768e-19 0.0996676)
(9.95796 4.18661e-19 0.0952225)
(9.88999 4.10838e-19 0.124689)
(9.91698 -3.81604e-19 0.122496)
(9.8301 4.86111e-19 0.151174)
(9.86318 2.98607e-19 0.151322)
(9.75834 -2.12734e-19 0.179394)
(9.7979 1.20757e-21 0.181964)
(9.67468 1.73202e-20 0.209792)
(9.72117 -2.09844e-19 0.214808)
(9.57895 -1.26265e-19 0.242927)
(9.63276 4.34325e-19 0.250412)
(9.47082 2.64402e-19 0.279405)
(9.53243 -1.12651e-19 0.289428)
(9.34978 -2.83352e-19 0.319829)
(9.41972 8.11787e-19 0.332525)
(9.21524 -4.48086e-19 0.364818)
(9.29415 -8.40043e-19 0.380345)
(9.06648 5.59716e-19 0.415064)
(9.15517 1.47921e-18 0.4336)
(8.90265 -9.02646e-19 0.471343)
(9.00214 -1.83713e-18 0.4931)
(8.72286 6.15467e-20 0.534558)
(8.83417 -1.08614e-18 0.559733)
(8.52612 1.07913e-18 0.605769)
(8.65045 2.17891e-18 0.63456)
(8.31126 7.57135e-20 0.686155)
(8.45018 0 0.718842)
(8.07693 2.61858e-18 0.777016)
(8.23222 1.27421e-21 0.813955)
(7.8216 2.17537e-18 0.8798)
(7.99537 2.15343e-19 0.921437)
(7.54357 -2.99887e-18 0.996082)
(7.73828 2.84385e-18 1.04302)
(7.24082 -2.99296e-18 1.12754)
(7.45938 -2.67696e-18 1.18059)
(6.91096 -3.45203e-19 1.27595)
(7.15678 5.45644e-18 1.33622)
(6.55101 0 1.4432)
(6.82815 -5.60054e-18 1.51221)
(6.15719 -8.12578e-19 1.63121)
(6.47052 -6.61788e-18 1.71104)
(5.72445 -1.6438e-18 1.84201)
(6.07987 5.23634e-18 1.93549)
(5.24562 5.33772e-18 2.07805)
(5.65065 1.25986e-17 2.18881)
(4.71005 -1.10889e-18 2.34311)
(5.17483 7.83742e-18 2.47533)
(4.10171 -2.04562e-17 2.6453)
(4.64131 -3.40274e-17 2.80157)
(3.38782 1.79575e-17 2.98663)
(4.02291 1.41978e-17 3.18483)
(2.60744 7.38704e-18 3.44623)
(3.39439 1.79398e-17 3.57006)
(2.25854 -1.76765e-17 4.36631)
(9.99147 -6.85622e-19 0.0557978)
(9.99561 -7.88711e-19 0.0403041)
(9.97049 1.38846e-19 0.0880662)
(9.9822 8.98048e-20 0.0771517)
(9.93569 -2.00712e-19 0.118652)
(9.95579 9.28313e-20 0.110874)
(9.88853 -4.79989e-19 0.149979)
(9.91559 6.63362e-19 0.144552)
(9.82982 -1.92393e-19 0.18305)
(9.86308 -1.15974e-21 0.179857)
(9.75968 0 0.218356)
(9.79939 0 0.217361)
(9.67808 2.19501e-19 0.256432)
(9.72464 -8.31072e-19 0.257556)
(9.58484 4.3778e-19 0.297931)
(9.63865 -1.7139e-21 0.301083)
(9.47969 4.51804e-19 0.343565)
(9.54117 4.40814e-19 0.348694)
(9.36226 2.25302e-19 0.394046)
(9.43186 9.15357e-19 0.401157)
(9.23206 1.12899e-18 0.450112)
(9.31035 -9.3378e-19 0.459228)
(9.08857 -9.75941e-19 0.512601)
(9.17618 8.68161e-19 0.523737)
(8.93111 -2.00834e-18 0.582441)
(9.02891 -2.15647e-18 0.595663)
(8.75894 1.08726e-18 0.660667)
(8.86784 -1.24293e-20 0.67604)
(8.57137 1.06332e-18 0.748528)
(8.69226 1.08156e-18 0.766025)
(8.3676 -7.44096e-20 0.847483)
(8.50162 8.60107e-21 0.867093)
(8.1467 -2.39802e-18 0.95914)
(8.29523 2.15493e-18 0.980908)
(7.90759 9.21833e-19 1.08531)
(8.07224 -4.63923e-18 1.10929)
(7.64906 3.08252e-18 1.22802)
(7.83175 2.82202e-18 1.25434)
(7.36968 5.88539e-18 1.38953)
(7.57271 0 1.41843)
(7.06761 6.18729e-20 1.57238)
(7.29381 5.80258e-18 1.60425)
(6.74048 -1.22198e-17 1.77944)
(6.99336 -4.92133e-18 1.81491)
(6.38506 -4.62949e-19 2.01395)
(6.66912 -1.152e-17 2.05401)
(5.99677 1.94884e-17 2.27976)
(6.31787 1.17525e-17 2.32584)
(5.56904 1.50941e-17 2.58166)
(5.93516 1.26298e-17 2.63557)
(5.0923 -2.49058e-17 2.92577)
(5.51416 1.78597e-19 2.98979)
(4.55502 -2.41417e-20 3.32333)
(5.04831 -2.65823e-17 3.39532)
(3.91841 1.44631e-17 3.76665)
(4.49472 2.70527e-17 3.88057)
(3.27862 -8.96492e-18 4.32592)
(4.04914 1.04426e-17 4.29845)
(2.8172 -2.32977e-17 5.28786)
(9.9902 3.9024e-21 0.0623906)
(9.99523 6.55014e-19 0.0443949)
(9.96882 4.38404e-20 0.100506)
(9.98119 7.58203e-19 0.0864029)
(9.93473 9.69157e-19 0.137357)
(9.95481 7.3381e-19 0.126218)
(9.88871 1.1289e-18 0.175051)
(9.91557 -5.62063e-19 0.166093)
(9.8315 1.91353e-19 0.214753)
(9.86458 1.95282e-19 0.207693)
(9.76328 -8.47362e-19 0.257115)
(9.80279 3.99729e-19 0.251832)
(9.68402 -1.03687e-18 0.302764)
(9.73034 -7.83013e-21 0.299129)
(9.59358 9.43686e-21 0.352431)
(9.64711 -6.42899e-19 0.350309)
(9.49172 9.13127e-19 0.406915)
(9.55289 6.53639e-19 0.406204)
(9.37814 -2.76853e-19 0.467026)
(9.4474 6.8633e-19 0.467665)
(9.25247 -1.16368e-18 0.533607)
(9.33033 -9.34443e-19 0.535546)
(9.11429 -3.64928e-19 0.607624)
(9.20133 9.57263e-19 0.610768)
(8.96313 -1.23139e-19 0.690169)
(9.06002 -1.10501e-18 0.694436)
(8.79837 0 0.782408)
(8.90605 0 0.787761)
(8.61944 8.74234e-21 0.885709)
(8.73878 0 0.892009)
(8.4258 2.27224e-18 1.00172)
(8.55769 1.3834e-22 1.00874)
(8.21692 -1.90349e-19 1.13231)
(8.36247 2.29947e-18 1.13982)
(7.99211 -2.62657e-18 1.2796)
(8.15259 -2.35018e-18 1.28734)
(7.75059 -3.02637e-19 1.44601)
(7.92752 -4.54606e-19 1.45369)
(7.49147 0 1.63432)
(7.68668 3.0424e-19 1.64168)
(7.21357 6.79783e-19 1.84772)
(7.42932 -5.06974e-18 1.8545)
(6.91526 -4.29478e-18 2.09)
(7.15447 1.03931e-17 2.09599)
(6.59424 8.9273e-19 2.36565)
(6.86072 -1.02073e-17 2.37073)
(6.24727 4.94717e-18 2.68001)
(6.5461 5.71577e-18 2.68421)
(5.86963 -2.27066e-18 3.03956)
(6.20786 -7.43427e-19 3.04297)
(5.4539 -1.53275e-18 3.45149)
(5.84085 9.37703e-18 3.45516)
(4.99576 0 3.92712)
(5.44586 -1.12844e-17 3.92445)
(4.4482 2.34129e-17 4.44567)
(4.95426 0 4.49471)
(3.93487 -7.35104e-18 5.04887)
(4.69762 4.5067e-17 4.90611)
(3.38718 -5.11191e-17 6.02374)
(9.98957 1.41163e-18 0.0692175)
(9.99506 6.9796e-19 0.0487457)
(9.96807 1.44794e-18 0.112833)
(9.9808 -7.96617e-19 0.0957117)
(9.93481 -8.25068e-19 0.155643)
(9.95474 9.39803e-20 0.141207)
(9.89017 -1.4809e-18 0.199467)
(9.91662 -7.59985e-19 0.187009)
(9.83475 4.07746e-19 0.245532)
(9.86738 -3.87327e-19 0.234689)
(9.76877 1.23191e-18 0.294636)
(9.80777 3.98574e-19 0.285219)
(9.69224 3.74734e-19 0.347513)
(9.73796 4.1517e-19 0.339339)
(9.60503 2.52094e-20 0.404982)
(9.65789 -4.25901e-19 0.397857)
(9.50697 4.27339e-19 0.467922)
(9.56738 4.35321e-19 0.461683)
(9.39779 0 0.537229)
(9.46622 8.92787e-19 0.531746)
(9.27721 1.22013e-18 0.613834)
(9.35416 7.96223e-21 0.608976)
(9.14487 1.82684e-19 0.69879)
(9.23093 1.20882e-18 0.694385)
(9.00049 -9.63959e-19 0.793312)
(9.09621 -3.89178e-18 0.789133)
(8.8437 0 0.898725)
(8.94988 -2.01795e-20 0.894564)
(8.67401 -8.60448e-21 1.01651)
(8.79153 -1.49301e-19 1.01214)
(8.491 6.26797e-20 1.14841)
(8.62071 2.09349e-18 1.14349)
(8.29441 6.89426e-20 1.2965)
(8.43726 -2.04882e-18 1.29058)
(8.08387 -1.49703e-19 1.46314)
(8.24092 2.22973e-18 1.45569)
(7.85901 1.62443e-19 1.6511)
(8.0315 -3.24356e-21 1.64151)
(7.6194 -4.82829e-18 1.86355)
(7.80881 4.75521e-18 1.85113)
(7.36451 4.79942e-18 2.10428)
(7.57263 -5.17434e-18 2.08823)
(7.09352 4.29803e-18 2.37778)
(7.32269 4.77682e-18 2.35719)
(6.80522 -5.26505e-18 2.68954)
(7.05847 -5.29319e-18 2.66334)
(6.49792 0 3.04601)
(6.77931 0 3.01308)
(6.16915 1.08433e-17 3.45457)
(6.48416 -1.0387e-17 3.41379)
(5.81369 -1.69541e-19 3.92184)
(6.16926 3.195e-17 3.87444)
(5.43376 -1.14154e-17 4.458)
(5.84459 -3.17379e-17 4.39261)
(4.97442 2.06802e-17 5.03017)
(5.40733 1.00265e-17 5.0327)
(4.55491 -7.96309e-18 5.64197)
(5.32213 2.1047e-17 5.41918)
(3.94664 -2.9478e-18 6.61804)
(9.98935 -1.53981e-18 0.0761177)
(9.99503 8.64057e-20 0.0531884)
(9.96803 -2.13214e-18 0.124951)
(9.98085 -8.91485e-19 0.104948)
(9.93574 1.41296e-19 0.173396)
(9.95538 8.54937e-20 0.155775)
(9.8927 3.41791e-19 0.223084)
(9.91858 6.55467e-21 0.207208)
(9.83934 -3.81228e-19 0.27526)
(9.87128 -3.87583e-19 0.260722)
(9.77589 -4.18365e-19 0.330832)
(9.81411 -1.38929e-21 0.317378)
(9.70242 -4.01569e-19 0.390631)
(9.74724 -8.11917e-19 0.378012)
(9.61886 0 0.455559)
(9.67066 -4.14862e-19 0.443516)
(9.52506 9.09004e-19 0.52657)
(9.58427 0 0.514882)
(9.42082 8.85829e-19 0.604628)
(9.48791 2.21375e-18 0.593103)
(9.30592 1.6668e-20 0.690744)
(9.38139 4.65499e-19 0.679175)
(9.18012 -2.95216e-18 0.786033)
(9.26454 -9.14428e-19 0.774184)
(9.0432 -2.88639e-18 0.891784)
(9.13713 -5.25996e-19 0.87934)
(8.89502 -1.71689e-19 1.00947)
(8.99912 -1.9679e-18 0.996051)
(8.73529 1.98755e-18 1.1407)
(8.85029 1.99621e-18 1.12595)
(8.56371 -7.80853e-20 1.28734)
(8.69053 5.06966e-20 1.27082)
(8.38016 1.70645e-19 1.45157)
(8.51968 -2.31944e-18 1.43266)
(8.18458 2.3482e-18 1.63593)
(8.33763 6.59203e-18 1.6139)
(7.97691 4.64755e-18 1.84345)
(8.14457 -4.28449e-18 1.81744)
(7.75716 4.30014e-18 2.07766)
(7.94067 4.41861e-18 2.04661)
(7.52538 -5.08304e-18 2.34278)
(7.72615 4.09629e-20 2.30545)
(7.28155 -4.90418e-18 2.64391)
(7.50136 4.54655e-18 2.5988)
(7.02557 0 2.98716)
(7.26673 -9.5276e-18 2.93253)
(6.75718 -1.0373e-17 3.37964)
(7.02269 9.67056e-18 3.31358)
(6.47588 1.05333e-17 3.82931)
(6.76968 -2.0335e-17 3.7498)
(6.17821 1.06229e-18 4.34108)
(6.50467 3.0559e-17 4.25086)
(5.87065 -1.09001e-17 4.92344)
(6.24781 -2.98374e-17 4.80631)
(5.49243 1.01927e-17 5.53527)
(5.85695 9.96575e-18 5.50428)
(5.1351 2.2676e-17 6.14357)
(5.917 0 5.86506)
(4.4872 5.21955e-19 7.12202)
(9.9894 7.16393e-19 0.0829628)
(9.99509 1.54625e-18 0.0576096)
(9.96854 1.34828e-18 0.136762)
(9.98122 1.93756e-18 0.113996)
(9.93739 -5.09009e-20 0.190534)
(9.95658 2.86012e-21 0.169847)
(9.89612 -7.31231e-19 0.245806)
(9.92129 -3.36047e-21 0.226607)
(9.84504 0 0.303826)
(9.87612 3.81957e-19 0.285683)
(9.7844 -4.10369e-19 0.365571)
(9.82163 1.87695e-21 0.348179)
(9.71429 -8.18026e-19 0.43195)
(9.75799 8.38015e-22 0.414996)
(9.63472 -4.07606e-19 0.503945)
(9.68523 -4.15256e-19 0.487105)
(9.54559 1.34384e-18 0.582585)
(9.60331 4.26599e-19 0.56558)
(9.44676 1.76387e-18 0.668894)
(9.51217 2.24931e-20 0.651475)
(9.33809 -4.88786e-19 0.76394)
(9.41166 4.559e-19 0.745829)
(9.21946 1.51964e-18 0.868906)
(9.30171 9.08598e-19 0.849788)
(9.09071 3.73252e-19 0.985134)
(9.18224 -4.08065e-19 0.964629)
(8.9518 2.60003e-19 1.11417)
(9.05321 -3.39937e-18 1.09181)
(8.8027 3.12383e-20 1.25779)
(8.9145 2.13138e-18 1.23302)
(8.64335 -2.22772e-18 1.41796)
(8.76645 1.98314e-19 1.3902)
(8.47367 4.22366e-18 1.59692)
(8.60897 -4.46311e-18 1.5655)
(8.29384 -1.73327e-19 1.79739)
(8.44203 8.55925e-18 1.76139)
(8.10417 -4.41969e-18 2.02256)
(8.26619 -4.43495e-18 1.98088)
(7.90505 1.12586e-19 2.27625)
(8.08187 -4.39205e-18 2.22754)
(7.69703 9.70052e-18 2.56301)
(7.8898 4.57793e-18 2.50565)
(7.48083 -1.27431e-19 2.88838)
(7.6908 9.77015e-18 2.82041)
(7.25732 1.74081e-19 3.25892)
(7.48619 -9.56674e-18 3.1781)
(7.02746 -2.40001e-19 3.68204)
(7.27721 9.66915e-18 3.58605)
(6.79234 -5.8166e-19 4.16604)
(7.06582 -9.67945e-18 4.0522)
(6.54945 4.05783e-19 4.71415)
(6.84861 8.43077e-18 4.58707)
(6.30702 -9.54401e-18 5.33317)
(6.65639 -1.14592e-17 5.17205)
(6.00162 0 5.97811)
(6.30673 -1.57102e-17 5.91963)
(5.68448 -2.20153e-17 6.58888)
(6.4873 9.83961e-19 6.26669)
(5.01242 -3.29579e-18 7.57971)
(9.98964 2.7754e-18 0.0896533)
(9.99522 9.03571e-20 0.0619307)
(9.96946 5.50152e-19 0.148179)
(9.98184 -2.58089e-19 0.122758)
(9.93963 5.02341e-20 0.206979)
(9.95822 -3.6468e-19 0.183345)
(9.90031 1.11829e-18 0.267544)
(9.92462 9.28996e-19 0.245124)
(9.85175 3.76583e-19 0.331117)
(9.88178 -7.5103e-19 0.309465)
(9.79417 4.13347e-19 0.398715)
(9.83022 1.87855e-21 0.377488)
(9.72774 3.96546e-19 0.471306)
(9.7701 -3.93852e-19 0.450136)
(9.6525 4.34385e-19 0.549951)
(9.70147 -6.06755e-22 0.528447)
(9.5684 -9.02632e-19 0.635751)
(9.62436 8.4582e-19 0.61358)
(9.47539 -1.28018e-18 0.729771)
(9.5388 -4.41321e-19 0.706634)
(9.37342 1.86169e-18 0.833123)
(9.44473 -1.31562e-18 0.808674)
(9.26246 -1.04024e-18 0.94705)
(9.34212 3.28148e-20 0.920896)
(9.14247 -4.23108e-18 1.07295)
(9.23107 -5.11977e-19 1.04465)
(9.01343 -1.44676e-18 1.21241)
(9.1116 -1.9229e-18 1.18144)
(8.87555 2.27076e-18 1.36727)
(8.98369 1.43337e-18 1.33295)
(8.72906 -2.09651e-18 1.53966)
(8.84782 -3.88219e-18 1.50119)
(8.57405 3.01063e-20 1.73194)
(8.70426 -3.23148e-20 1.68854)
(8.4108 4.15031e-18 1.94686)
(8.55324 3.69389e-18 1.89753)
(8.23997 -4.40154e-18 2.18776)
(8.39541 4.15759e-18 2.13117)
(8.06231 1.41872e-19 2.45865)
(8.23148 -4.34264e-18 2.3932)
(7.87883 4.68967e-18 2.76436)
(8.06261 -3.23395e-19 2.68815)
(7.69086 2.42103e-19 3.11073)
(7.89013 -5.18985e-19 3.02142)
(7.50012 -3.57601e-20 3.50465)
(7.716 -8.55859e-18 3.3996)
(7.30854 2.82863e-19 3.95383)
(7.54221 1.79431e-17 3.83039)
(7.11855 -7.83574e-19 4.46661)
(7.37229 -8.04321e-18 4.32167)
(6.92785 -3.14288e-18 5.0454)
(7.20134 -7.99365e-18 4.88526)
(6.74424 -1.75546e-17 5.69616)
(7.07091 1.51141e-17 5.49559)
(6.50608 -1.58403e-17 6.37377)
(6.76182 -8.98765e-18 6.28707)
(6.21914 2.10837e-17 7.00481)
(7.0445 -2.60675e-17 6.64078)
(5.53506 1.95002e-17 8.02257)
(9.99002 -2.95159e-18 0.0961133)
(9.9954 -2.73084e-18 0.0660968)
(9.9707 -1.17578e-18 0.15912)
(9.98262 -1.57752e-18 0.131158)
(9.94235 5.41221e-19 0.22265)
(9.96021 1.9648e-18 0.196196)
(9.90516 -9.74766e-19 0.288199)
(9.92845 2.4921e-21 0.262677)
(9.85935 -1.11187e-18 0.357008)
(9.88812 3.67763e-19 0.331958)
(9.80512 -8.13233e-19 0.430115)
(9.83972 0 0.405172)
(9.74265 -7.84558e-19 0.508531)
(9.78341 -7.98786e-19 0.483279)
(9.67205 4.25705e-19 0.593389)
(9.71918 8.04043e-19 0.567377)
(9.59333 1.28625e-18 0.685847)
(9.64715 2.06689e-18 0.658698)
(9.50651 -4.90238e-19 0.787002)
(9.56752 8.60428e-19 0.758363)
(9.41164 -3.12609e-18 0.897998)
(9.48023 1.2798e-18 0.867469)
(9.30877 5.52176e-19 1.02013)
(9.38537 -3.5655e-18 0.987247)
(9.19801 1.781e-18 1.15485)
(9.28314 2.29555e-18 1.11908)
(9.07947 1.00693e-18 1.30378)
(9.17368 -4.72413e-19 1.26455)
(8.95336 -4.79505e-18 1.46877)
(9.05724 4.27561e-18 1.42534)
(8.82017 -1.77583e-18 1.65202)
(8.93408 -1.18944e-17 1.60345)
(8.68038 3.68329e-18 1.85607)
(8.80482 8.60708e-18 1.80135)
(8.53448 3.70118e-18 2.08374)
(8.67031 -1.17247e-20 2.02174)
(8.38325 4.15086e-18 2.33837)
(8.53116 6.60253e-19 2.26767)
(8.22779 -4.77464e-18 2.62417)
(8.38829 3.54392e-18 2.54292)
(8.06956 -5.5501e-18 2.94616)
(8.24326 3.83612e-18 2.85221)
(7.9104 -9.33975e-18 3.31039)
(8.09799 -7.37721e-18 3.20113)
(7.75278 9.35872e-18 3.72397)
(7.9548 -7.55428e-18 3.59639)
(7.59949 9.80317e-18 4.19499)
(7.81661 1.50517e-17 4.04604)
(7.45396 -1.52711e-17 4.73189)
(7.68831 -8.35222e-18 4.55802)
(7.31412 9.88539e-18 5.33762)
(7.5634 -6.93512e-18 5.146)
(7.18556 2.39126e-17 6.01858)
(7.49322 1.72386e-17 5.77999)
(7.01435 -1.91345e-17 6.73212)
(7.22979 -8.67982e-18 6.61017)
(6.75909 -1.99799e-17 7.41022)
(7.60299 -3.2944e-18 6.99781)
(6.07574 -1.31077e-17 8.47298)
(9.99049 -1.33408e-18 0.102286)
(9.99561 -4.4336e-21 0.0700683)
(9.97217 1.64025e-18 0.16952)
(9.98355 -1.38198e-18 0.139135)
(9.94544 1.38579e-18 0.237476)
(9.96245 1.8493e-19 0.208341)
(9.91052 1.35319e-18 0.307679)
(9.93267 -1.8308e-19 0.2792)
(9.86764 1.47392e-18 0.381377)
(9.89496 -7.31046e-19 0.353076)
(9.817 0 0.459624)
(9.8499 0 0.431108)
(9.75877 8.19474e-19 0.543467)
(9.79763 0 0.514287)
(9.69306 2.46838e-18 0.634088)
(9.738 5.60983e-21 0.603762)
(9.61997 1.62125e-18 0.73268)
(9.67132 1.6503e-18 0.700785)
(9.53966 2.639e-18 0.840367)
(9.59788 -1.66256e-18 0.806484)
(9.45224 7.68272e-19 0.958332)
(9.51767 8.87241e-19 0.922002)
(9.35785 -1.73533e-18 1.08789)
(9.43095 -8.97266e-19 1.04861)
(9.25673 0 1.23054)
(9.3379 0 1.18767)
(9.14919 2.86283e-18 1.38794)
(9.23881 0 1.34081)
(9.03546 -3.02943e-18 1.56195)
(9.13423 2.36787e-18 1.50982)
(8.91607 -1.26818e-18 1.75473)
(9.02432 -6.21721e-18 1.69662)
(8.79191 4.81995e-18 1.96892)
(8.90987 4.83269e-18 1.90359)
(8.66384 -3.05067e-18 2.20749)
(8.79219 4.97424e-19 2.13361)
(8.53279 6.41195e-20 2.47381)
(8.67213 -4.9557e-18 2.38986)
(8.4001 1.2176e-17 2.77214)
(8.55083 1.56423e-19 2.67614)
(8.26768 2.00135e-18 3.1077)
(8.43016 1.154e-17 2.99716)
(8.13792 -5.59828e-18 3.48656)
(8.31263 -7.56828e-18 3.35868)
(8.0139 -1.93797e-18 3.91611)
(8.20101 5.67806e-18 3.76746)
(7.89932 -2.97159e-18 4.40469)
(8.0991 -8.46431e-18 4.23175)
(7.79847 0 4.96144)
(8.01293 6.94468e-18 4.7598)
(7.71023 0 5.5909)
(7.93571 -6.71602e-18 5.36729)
(7.63653 -1.52422e-17 6.30177)
(7.92596 0 6.02381)
(7.53833 7.3158e-18 7.05612)
(7.72036 -1.80097e-17 6.88562)
(7.32793 2.72052e-18 7.8182)
(8.17845 2.92367e-17 7.34111)
(6.66352 -2.54068e-17 8.94788)
(9.99104 -7.83691e-20 0.108126)
(9.99585 2.70214e-18 0.0738133)
(9.97383 -2.80537e-18 0.179325)
(9.98459 -1.37895e-18 0.146641)
(9.94882 -1.39277e-18 0.251404)
(9.96493 -1.06963e-18 0.219732)
(9.91627 -2.27974e-18 0.325922)
(9.93723 1.08165e-18 0.294647)
(9.87643 -2.19312e-18 0.404139)
(9.90225 7.21009e-19 0.372757)
(9.82953 0 0.487136)
(9.86068 0 0.455219)
(9.77571 -8.14641e-19 0.575996)
(9.81257 0 0.543071)
(9.7151 -7.86517e-19 0.671925)
(9.75772 -7.97382e-19 0.637489)
(9.64792 -1.69064e-18 0.776115)
(9.69663 -8.03774e-19 0.739696)
(9.57439 -3.3781e-18 0.889714)
(9.62965 -8.408e-19 0.850837)
(9.49474 -8.08002e-19 1.01394)
(9.55675 -3.3908e-18 0.97209)
(9.40919 8.54082e-19 1.15013)
(9.47841 1.72358e-18 1.10475)
(9.31804 0 1.29977)
(9.39484 0 1.25021)
(9.22172 -4.66688e-19 1.46458)
(9.30638 -8.7805e-19 1.41005)
(9.12072 -9.24308e-19 1.64641)
(9.21376 -4.61347e-19 1.5861)
(9.01564 1.07705e-20 1.84739)
(9.11745 -8.85182e-21 1.78031)
(8.90751 4.59866e-19 2.07012)
(9.01831 -4.55547e-19 1.99491)
(8.79754 -1.45246e-18 2.31769)
(8.91765 0 2.2328)
(8.68701 -4.83494e-18 2.59358)
(8.81682 -4.21386e-18 2.49733)
(8.57755 -4.54072e-19 2.902)
(8.71737 -6.0895e-19 2.79228)
(8.47142 1.93267e-18 3.24816)
(8.62149 -3.49191e-18 3.12228)
(8.3716 3.71324e-18 3.63823)
(8.53209 1.35015e-17 3.49306)
(8.28184 -7.65308e-19 4.07971)
(8.45271 6.42094e-18 3.9114)
(8.20677 1.32031e-18 4.58105)
(8.38785 -1.91542e-17 4.38553)
(8.15164 4.10229e-19 5.15282)
(8.34481 2.30755e-17 4.92419)
(8.11792 -6.83178e-18 5.80144)
(8.31809 -1.28835e-17 5.54436)
(8.10338 -2.52039e-18 6.54021)
(8.37054 0 6.22014)
(8.09152 2.46736e-18 7.33956)
(8.24321 -2.50939e-18 7.1015)
(7.95451 -5.32039e-18 8.23443)
(8.78651 5.84385e-18 7.66153)
(7.33571 -2.64323e-19 9.45542)
(9.99165 1.32386e-18 0.113596)
(9.99612 -7.94067e-20 0.0773035)
(9.97567 3.64638e-19 0.18849)
(9.98573 2.82498e-18 0.153629)
(9.95249 1.45027e-18 0.264389)
(9.96764 7.04019e-19 0.230318)
(9.92242 4.07824e-18 0.342879)
(9.94214 -7.12864e-19 0.308966)
(9.88575 2.90348e-18 0.425237)
(9.91006 1.49059e-18 0.390941)
(9.84273 0 0.512585)
(9.87212 -7.51198e-19 0.477437)
(9.79346 3.77301e-21 0.606033)
(9.82831 -2.88221e-21 0.569559)
(9.73815 -8.14604e-19 0.706772)
(9.7784 1.56633e-18 0.668446)
(9.67711 4.64576e-20 0.815993)
(9.72308 -8.05373e-19 0.775296)
(9.61058 -8.90793e-19 0.93486)
(9.66269 8.25694e-19 0.891297)
(9.53887 -7.82866e-19 1.06461)
(9.59729 8.03691e-19 1.01762)
(9.46234 8.44971e-19 1.2066)
(9.52744 1.97701e-20 1.15556)
(9.38135 -8.90663e-19 1.36232)
(9.45347 0 1.30654)
(9.29642 -8.68263e-19 1.53344)
(9.37582 -1.29778e-20 1.47212)
(9.2083 4.61015e-19 1.72185)
(9.2953 -3.50108e-18 1.65405)
(9.1178 -4.79826e-19 1.92962)
(9.21275 3.10124e-18 1.85428)
(9.02598 -9.13818e-19 2.15927)
(9.12913 -3.5974e-18 2.07503)
(8.93422 -2.79507e-18 2.41391)
(9.0456 7.13165e-18 2.31908)
(8.84428 3.68907e-20 2.69709)
(8.96397 -6.34511e-18 2.58977)
(8.75822 -3.65944e-18 3.01296)
(8.88631 7.22519e-18 2.89085)
(8.67874 8.08537e-18 3.36657)
(8.81524 -1.16797e-17 3.22683)
(8.60928 1.62753e-17 3.76409)
(8.75416 1.45489e-17 3.60326)
(8.55446 -1.1829e-17 4.21283)
(8.70738 1.72301e-18 4.02658)
(8.51994 2.15995e-18 4.72136)
(8.68 -2.31214e-17 4.50483)
(8.51203 1.03002e-17 5.30139)
(8.68129 2.21458e-17 5.0471)
(8.53673 -6.22447e-18 5.96104)
(8.70792 -1.17732e-17 5.66972)
(8.59018 4.54814e-20 6.71974)
(8.82466 4.73542e-18 6.35521)
(8.68526 3.76504e-20 7.56116)
(8.80203 -1.31121e-17 7.23364)
(8.6722 1.04377e-17 8.65376)
(9.43816 4.40177e-18 7.92454)
(8.14174 9.78776e-18 9.99861)
(9.99233 1.47735e-18 0.118658)
(9.9964 -4.04778e-18 0.080516)
(9.97768 3.12022e-18 0.196961)
(9.98695 3.84369e-19 0.160055)
(9.95647 -1.48915e-18 0.276368)
(9.97052 2.80071e-20 0.240043)
(9.92903 -3.26071e-18 0.358479)
(9.94732 -1.49439e-18 0.322089)
(9.89572 -2.20895e-18 0.444596)
(9.91822 -1.49939e-18 0.407551)
(9.85674 -7.41113e-19 0.535898)
(9.88402 -6.69737e-20 0.497692)
(9.81218 1.5876e-18 0.633501)
(9.84462 1.43259e-18 0.593678)
(9.7623 1.53782e-18 0.738548)
(9.79983 1.5938e-18 0.696583)
(9.70748 0 0.852234)
(9.75038 0 0.807556)
(9.64805 2.52203e-18 0.975746)
(9.69673 0 0.92782)
(9.58438 1.59806e-18 1.11031)
(9.63904 2.5341e-18 1.05854)
(9.51694 -8.27396e-19 1.2573)
(9.57782 -1.64e-18 1.20101)
(9.44621 8.79023e-19 1.41818)
(9.51356 0 1.35665)
(9.37283 -2.68887e-18 1.59457)
(9.44691 3.28798e-18 1.52697)
(9.29771 -7.92195e-19 1.7883)
(9.37868 -8.43256e-18 1.71363)
(9.22187 -8.01794e-20 2.00145)
(9.31001 6.77766e-18 1.91854)
(9.14642 4.54197e-18 2.23646)
(9.24193 -4.37082e-18 2.14396)
(9.07285 3.50682e-18 2.49631)
(9.17571 7.29429e-18 2.39255)
(9.00331 9.05744e-19 2.78445)
(9.11339 -5.26575e-18 2.66736)
(8.9404 -8.31812e-19 3.10492)
(9.05744 2.93806e-18 2.972)
(8.88738 -5.26164e-18 3.4626)
(9.01091 -6.93156e-18 3.31078)
(8.8483 0 3.86332)
(8.97809 4.64196e-18 3.68892)
(8.82852 -9.38173e-18 4.31382)
(8.96372 0 4.1122)
(8.83505 -3.6607e-18 4.82277)
(8.97361 -6.79925e-18 4.58798)
(8.87575 4.79877e-19 5.4014)
(9.01949 8.79671e-18 5.12486)
(8.96194 -9.88867e-19 6.05845)
(9.10103 -5.76928e-18 5.73578)
(9.09344 -8.38999e-18 6.81673)
(9.28209 8.12344e-19 6.41125)
(9.31856 -9.09236e-18 7.67937)
(9.38753 -2.35547e-18 7.2458)
(9.52694 4.03246e-18 9.051)
(10.1893 -2.12977e-21 8.0106)
(10.0479 8.67879e-20 10.4583)
(0.216189 -8.31404e-19 -0.133628)
(0.0765401 -1.82374e-18 -0.163279)
(0.489007 -5.72118e-19 -0.120507)
(0.261607 8.172e-19 -0.168299)
(0.800248 7.12116e-19 -0.105737)
(0.550826 1.46743e-18 -0.156524)
(1.1471 1.12861e-20 -0.0982708)
(0.866713 -1.0093e-18 -0.151409)
(1.50753 -4.91897e-19 -0.0943234)
(1.20328 -3.33261e-19 -0.148565)
(1.85651 1.92814e-19 -0.0916682)
(1.53966 -4.95114e-19 -0.146234)
(2.17845 3.30906e-19 -0.088951)
(1.85354 3.42435e-19 -0.142685)
(2.46764 0 -0.0855584)
(2.13329 0 -0.136903)
(2.72365 0 -0.0815393)
(2.37682 3.31325e-19 -0.129003)
(2.94848 0 -0.0772011)
(2.58531 -4.23959e-21 -0.119663)
(3.14479 7.64058e-20 -0.0727313)
(2.76086 0 -0.109404)
(3.314 2.93365e-19 -0.0681419)
(2.90493 7.32721e-20 -0.0981936)
(3.45653 2.16974e-19 -0.0634306)
(3.01725 -8.66333e-20 -0.0859377)
(3.57323 -1.31675e-19 -0.0585382)
(3.09757 0 -0.0730634)
(3.66553 -2.57992e-19 -0.0531213)
(3.14756 2.93729e-19 -0.0600678)
(3.73434 -1.26522e-19 -0.0466503)
(3.17074 7.8874e-20 -0.0469114)
(3.78073 0 -0.0390319)
(3.17196 2.64484e-19 -0.0338419)
(3.80755 9.58916e-20 -0.0310281)
(3.15872 -6.49387e-20 -0.0219665)
(3.81922 6.22496e-21 -0.023906)
(3.13955 2.19685e-19 -0.0125624)
(3.82261 -9.10109e-20 -0.0187917)
(3.12102 -2.81824e-21 -0.00728818)
(3.82555 5.48446e-21 -0.0162343)
(3.10915 -8.20563e-20 -0.00691981)
(3.83571 -4.16588e-20 -0.0162345)
(3.10948 5.50991e-21 -0.0115038)
(3.85953 -4.75061e-20 -0.0183699)
(3.12564 -9.48081e-20 -0.0203755)
(3.90355 -2.95851e-20 -0.0221976)
(3.16295 1.00876e-20 -0.0337017)
(3.97561 -9.27879e-20 -0.0283865)
(3.22948 -2.56806e-21 -0.0524414)
(4.08567 -1.08983e-19 -0.0390882)
(3.33373 -3.88173e-22 -0.0781683)
(4.24512 -8.06784e-20 -0.0567942)
(3.48356 -9.76758e-20 -0.112016)
(4.46621 -3.62033e-20 -0.083135)
(3.68658 1.42018e-21 -0.15488)
(4.76206 -1.06625e-20 -0.118234)
(3.9492 -4.93964e-20 -0.207815)
(4.36475 1.77354e-21 -0.269386)
(0.0825173 -2.9989e-19 -0.231157)
(-0.0163423 1.79269e-18 -0.272448)
(0.313239 2.81162e-18 -0.242118)
(0.0931842 1.68164e-18 -0.306134)
(0.600618 -1.53231e-19 -0.232239)
(0.350356 1.81461e-18 -0.29599)
(0.918771 -1.36038e-18 -0.228419)
(0.616392 1.3136e-18 -0.287348)
(1.24281 -3.38022e-19 -0.225591)
(0.89815 -2.66271e-18 -0.281173)
(1.54716 -3.22305e-19 -0.221135)
(1.17045 -1.49509e-18 -0.274742)
(1.81697 0 -0.213494)
(1.41235 2.74891e-18 -0.264974)
(2.04808 3.40447e-19 -0.202437)
(1.61516 -1.41068e-18 -0.250667)
(2.24113 3.23476e-19 -0.188547)