/*--------------------------------*- C++ -*----------------------------------*\
| =========                 |                                                 |
| \\      /  F ield         | OpenFOAM: The Open Source CFD Toolbox           |
|  \\    /   O peration     | Version:  5.x                                   |
|   \\  /    A nd           | Web:      www.OpenFOAM.org                      |
|    \\/     M anipulation  |                                                 |
\*---------------------------------------------------------------------------*/
FoamFile
{
    version     2.0;
    format      ascii;
    class       pointVectorField;
    location    "2.2";
    object      pointDisplacement;
}
// * * * * * * * * * * * * * * * * * * * * * * * * * * * * * * * * * * * * * //

dimensions      [0 1 0 0 0 0 0];

internalField   nonuniform List<vector> 
5828
(
(0 0 0)
(0.0239655 0 0)
(0.0452044 0 0)
(0.0631087 0 0)
(0.0780186 0 0)
(0.09026 0 0)
(0.100118 0 0)
(0.107836 0 0)
(0.113626 0 0)
(0.117677 0 0)
(0.120155 0 0)
(0.121203 0 0)
(0.120943 0 0)
(0.119487 0 0)
(0.116933 0 0)
(0.113372 0 0)
(0.108887 0 0)
(0.103556 0 0)
(0.0974539 0 0)
(0.0906555 0 0)
(0.0832368 0 0)
(0.0752789 0 0)
(0.0668696 0 0)
(0.0581076 0 0)
(0.0491086 0 0)
(0.0400169 0 0)
(0.0310253 0 0)
(0.0224498 0 0)
(0.0148293 0 0)
(0.00935224 0 0)
(1.06334e-09 0 0)
(0 0 0)
(0.0239818 0 -0.000223712)
(0.0452362 0 -0.000424679)
(0.0631563 0 -0.000600229)
(0.0780828 0 -0.000755037)
(0.0903418 0 -0.000892459)
(0.10022 0 -0.0010148)
(0.107959 0 -0.00112388)
(0.113772 0 -0.00122043)
(0.117849 0 -0.00130462)
(0.120357 0 -0.00137644)
(0.121438 0 -0.0014351)
(0.121216 0 -0.0014793)
(0.119803 0 -0.00150732)
(0.117298 0 -0.00151699)
(0.113792 0 -0.00150572)
(0.10937 0 -0.00147032)
(0.104111 0 -0.00140682)
(0.0980918 0 -0.00131044)
(0.0913891 0 -0.00117555)
(0.0840819 0 -0.000995501)
(0.0762552 0 -0.000762533)
(0.068003 0 -0.000467324)
(0.0594321 0 -9.85998e-05)
(0.0506718 0 0.000356949)
(0.0418867 0 0.00091483)
(0.0332856 0 0.00159464)
(0.0251973 0 0.00241889)
(0.0182201 0 0.00339785)
(0.0137074 0 0.00444102)
(0.00648548 0 0.00615426)
(0 0 0)
(0.0240308 0 -0.00044791)
(0.045333 0 -0.000850385)
(0.063301 0 -0.00120212)
(0.0782769 0 -0.00151251)
(0.090588 0 -0.00178825)
(0.100522 0 -0.00203381)
(0.108325 0 -0.0022517)
(0.114207 0 -0.00244462)
(0.118364 0 -0.00261424)
(0.120961 0 -0.00275953)
(0.122142 0 -0.00287888)
(0.122034 0 -0.00296983)
(0.120748 0 -0.00302902)
(0.118388 0 -0.00305224)
(0.115047 0 -0.00303457)
(0.110813 0 -0.00296996)
(0.105769 0 -0.00285073)
(0.0999975 0 -0.00266782)
(0.0935798 0 -0.00241053)
(0.0866029 0 -0.00206634)
(0.0791639 0 -0.00162105)
(0.0713726 0 -0.00105779)
(0.0633566 0 -0.000356207)
(0.0552758 0 0.000507027)
(0.0473534 0 0.00155671)
(0.039878 0 0.00281828)
(0.0332466 0 0.00430783)
(0.028122 0 0.00600715)
(0.0261505 0 0.0076641)
(0.0212874 0 0.0103101)
(0 0 0)
(0.024112 0 -0.000671856)
(0.0454931 0 -0.00127572)
(0.0635402 0 -0.00180372)
(0.0785978 0 -0.00227008)
(0.0909947 0 -0.0026848)
(0.101021 0 -0.0030546)
(0.108927 0 -0.00338366)
(0.114927 0 -0.00367594)
(0.119216 0 -0.00393372)
(0.121961 0 -0.00415572)
(0.123308 0 -0.00433978)
(0.123388 0 -0.0044825)
(0.122314 0 -0.00457909)
(0.120194 0 -0.00462343)
(0.117125 0 -0.00460889)
(0.113202 0 -0.00452717)
(0.108514 0 -0.00436744)
(0.103151 0 -0.00411721)
(0.0972042 0 -0.00376191)
(0.0907707 0 -0.00328444)
(0.0839679 0 -0.00266697)
(0.0769328 0 -0.00188894)
(0.069822 0 -0.000925402)
(0.0628335 0 0.00025042)
(0.0562491 0 0.00166204)
(0.0504783 0 0.00331789)
(0.0461029 0 0.00518898)
(0.0438813 0 0.00718088)
(0.045504 0 0.00882934)
(0.043645 0 0.0116057)
(0 0 0)
(0.0242241 0 -0.000894897)
(0.0457144 0 -0.00169947)
(0.0638713 0 -0.00240335)
(0.0790424 0 -0.00302581)
(0.091558 0 -0.00358006)
(0.101713 0 -0.00407513)
(0.109763 0 -0.00451787)
(0.115926 0 -0.00491277)
(0.120397 0 -0.00526201)
(0.123345 0 -0.00556486)
(0.124922 0 -0.005819)
(0.125259 0 -0.00602038)
(0.124479 0 -0.00616313)
(0.122688 0 -0.00623927)
(0.119994 0 -0.00624147)
(0.1165 0 -0.00616039)
(0.112302 0 -0.00598259)
(0.107503 0 -0.00569358)
(0.102207 0 -0.00527688)
(0.0965256 0 -0.00471293)
(0.090597 0 -0.00398223)
(0.0845913 0 -0.00306467)
(0.0787038 0 -0.00193742)
(0.0731961 0 -0.000582612)
(0.0684077 0 0.00100711)
(0.0648214 0 0.00281064)
(0.0632078 0 0.0047286)
(0.0645911 0 0.00652587)
(0.070509 0 0.00753428)
(0.0717591 0 0.00984312)
(0 0 0)
(0.0243661 0 -0.00111735)
(0.0459949 0 -0.00212233)
(0.064292 0 -0.00300212)
(0.0796073 0 -0.00378043)
(0.0922726 0 -0.00447422)
(0.102591 0 -0.00509578)
(0.110824 0 -0.00565397)
(0.117192 0 -0.00615408)
(0.121892 0 -0.00659865)
(0.125097 0 -0.00698749)
(0.126963 0 -0.00731844)
(0.127627 0 -0.00758733)
(0.127217 0 -0.00778781)
(0.125847 0 -0.0079114)
(0.123629 0 -0.00794966)
(0.120675 0 -0.00789207)
(0.117094 0 -0.00772445)
(0.113001 0 -0.00743239)
(0.108522 0 -0.00699977)
(0.103786 0 -0.00640713)
(0.0989547 0 -0.00563681)
(0.0942334 0 -0.00467385)
(0.0898574 0 -0.00350347)
(0.0861466 0 -0.00212424)
(0.0835307 0 -0.00056231)
(0.082584 0 0.0011114)
(0.0841204 0 0.00272709)
(0.0894209 0 0.00388203)
(0.0999542 0 0.0037355)
(0.104308 0 0.0052273)
(0 0 0)
(0.0245372 0 -0.00133949)
(0.0463323 0 -0.00254484)
(0.0647953 0 -0.00360077)
(0.080282 0 -0.00453487)
(0.0931303 0 -0.00536885)
(0.103649 0 -0.00611891)
(0.112103 0 -0.00679522)
(0.118717 0 -0.00740414)
(0.123692 0 -0.00794899)
(0.127205 0 -0.0084302)
(0.129418 0 -0.00884624)
(0.130474 0 -0.00919332)
(0.130507 0 -0.0094653)
(0.129641 0 -0.00965475)
(0.127995 0 -0.00975165)
(0.125688 0 -0.00974413)
(0.12284 0 -0.00961908)
(0.119586 0 -0.00936471)
(0.116076 0 -0.00896842)
(0.112459 0 -0.00841316)
(0.108923 0 -0.00768636)
(0.105712 0 -0.00678316)
(0.103113 0 -0.00570577)
(0.101484 0 -0.00447439)
(0.101327 0 -0.00315276)
(0.103347 0 -0.00188248)
(0.108404 0 -0.000916933)
(0.117818 0 -0.000787343)
(0.132957 0 -0.00244631)
(0.140337 0 -0.00199553)
(0 0 0)
(0.0247355 0 -0.00156039)
(0.0467228 0 -0.00296533)
(0.0653755 0 -0.00419717)
(0.0810604 0 -0.0052884)
(0.0941249 0 -0.00626502)
(0.104879 0 -0.00714617)
(0.11359 0 -0.00794385)
(0.12049 0 -0.00866593)
(0.125783 0 -0.00931673)
(0.129652 0 -0.00989748)
(0.132265 0 -0.0104078)
(0.133773 0 -0.0108449)
(0.134315 0 -0.011203)
(0.134024 0 -0.0114748)
(0.13303 0 -0.0116518)
(0.131466 0 -0.0117244)
(0.129465 0 -0.0116808)
(0.127176 0 -0.0115116)
(0.12477 0 -0.0112089)
(0.122428 0 -0.010763)
(0.120364 0 -0.0101698)
(0.118856 0 -0.00943811)
(0.118244 0 -0.00859244)
(0.11895 0 -0.00768549)
(0.121535 0 -0.00682505)
(0.126759 0 -0.00621461)
(0.13562 0 -0.00621334)
(0.149292 0 -0.00742886)
(0.168809 0 -0.0108158)
(0.179041 0 -0.0116026)
(0 0 0)
(0.0249583 0 -0.00177919)
(0.0471619 0 -0.00338219)
(0.0660301 0 -0.00478934)
(0.0819404 0 -0.0060386)
(0.0952484 0 -0.00715964)
(0.106267 0 -0.008174)
(0.115268 0 -0.00909615)
(0.122489 0 -0.00993569)
(0.128139 0 -0.0106983)
(0.132407 0 -0.0113859)
(0.135468 0 -0.0120001)
(0.137482 0 -0.0125399)
(0.138594 0 -0.0130001)
(0.138945 0 -0.0133746)
(0.13868 0 -0.0136573)
(0.137944 0 -0.0138415)
(0.13689 0 -0.0139206)
(0.135676 0 -0.0138863)
(0.134491 0 -0.0137367)
(0.133556 0 -0.0134745)
(0.133113 0 -0.0131071)
(0.133474 0 -0.0126607)
(0.135035 0 -0.0121871)
(0.138272 0 -0.0117743)
(0.14382 0 -0.0115812)
(0.152464 0 -0.0118684)
(0.165279 0 -0.0130889)
(0.183226 0 -0.015885)
(0.206798 0 -0.0210926)
(0.219613 0 -0.0232266)
(0 0 0)
(0.0252033 0 -0.00199554)
(0.0476458 0 -0.00379484)
(0.0667527 0 -0.00537643)
(0.0829124 0 -0.00678353)
(0.0964883 0 -0.00804963)
(0.107798 0 -0.00919899)
(0.117118 0 -0.0102485)
(0.124691 0 -0.0112098)
(0.130734 0 -0.0120903)
(0.135443 0 -0.0128941)
(0.138998 0 -0.0136239)
(0.141566 0 -0.0142799)
(0.143302 0 -0.0148591)
(0.144361 0 -0.0153591)
(0.144893 0 -0.015775)
(0.145052 0 -0.0161016)
(0.145017 0 -0.0163401)
(0.144966 0 -0.0164894)
(0.145108 0 -0.0165548)
(0.145692 0 -0.0165511)
(0.14699 0 -0.0165004)
(0.149358 0 -0.0164505)
(0.153239 0 -0.0164826)
(0.159173 0 -0.0167247)
(0.167835 0 -0.0173815)
(0.180078 0 -0.0187787)
(0.196905 0 -0.0214148)
(0.219005 0 -0.0259185)
(0.246232 0 -0.032914)
(0.26129 0 -0.0363695)
(0 0 0)
(0.0254693 0 -0.00220961)
(0.0481715 0 -0.00420361)
(0.0675386 0 -0.00595891)
(0.08397 0 -0.00752391)
(0.0978371 0 -0.00893605)
(0.109462 0 -0.0102225)
(0.119128 0 -0.0114026)
(0.127084 0 -0.0124902)
(0.133552 0 -0.0134951)
(0.13874 0 -0.0144248)
(0.14283 0 -0.0152817)
(0.145992 0 -0.0160667)
(0.148396 0 -0.0167811)
(0.150204 0 -0.0174246)
(0.151582 0 -0.017997)
(0.152699 0 -0.0184987)
(0.153746 0 -0.0189354)
(0.154928 0 -0.0193155)
(0.156476 0 -0.0196548)
(0.15866 0 -0.0199799)
(0.161788 0 -0.0203305)
(0.166266 0 -0.0207815)
(0.172578 0 -0.0214425)
(0.181311 0 -0.022479)
(0.193197 0 -0.0241436)
(0.209155 0 -0.0268227)
(0.229977 0 -0.031003)
(0.256034 0 -0.0372416)
(0.286453 0 -0.0458764)
(0.303525 0 -0.0504947)
(0 0 0)
(0.0257549 0 -0.00242147)
(0.0487357 0 -0.00460863)
(0.0683825 0 -0.00653695)
(0.0851062 0 -0.00826004)
(0.0992858 0 -0.0098193)
(0.111249 0 -0.0112449)
(0.121285 0 -0.0125587)
(0.129648 0 -0.013777)
(0.136571 0 -0.0149122)
(0.142263 0 -0.015974)
(0.146913 0 -0.0169658)
(0.150702 0 -0.0178917)
(0.153808 0 -0.0187566)
(0.156404 0 -0.0195633)
(0.15867 0 -0.0203169)
(0.160797 0 -0.0210256)
(0.162977 0 -0.0216981)
(0.165436 0 -0.0223519)
(0.168438 0 -0.0230172)
(0.172276 0 -0.023735)
(0.177292 0 -0.0245642)
(0.183925 0 -0.0256022)
(0.192717 0 -0.0269951)
(0.204295 0 -0.0289422)
(0.219455 0 -0.0317433)
(0.239097 0 -0.0358112)
(0.263804 0 -0.0415942)
(0.293612 0 -0.0495271)
(0.326803 0 -0.0595967)
(0.346109 0 -0.0651856)
(0 0 0)
(0.0260563 0 -0.00263002)
(0.0493315 0 -0.0050078)
(0.069274 0 -0.00710752)
(0.0863072 0 -0.00898807)
(0.100817 0 -0.0106949)
(0.113138 0 -0.0122611)
(0.123563 0 -0.0137112)
(0.132354 0 -0.0150636)
(0.139751 0 -0.0163339)
(0.145969 0 -0.0175337)
(0.151204 0 -0.0186695)
(0.155648 0 -0.0197493)
(0.159486 0 -0.02078)
(0.162904 0 -0.02177)
(0.166088 0 -0.0227276)
(0.169242 0 -0.023667)
(0.172582 0 -0.0246068)
(0.176348 0 -0.0255736)
(0.180823 0 -0.0266097)
(0.186332 0 -0.0277732)
(0.193254 0 -0.0291457)
(0.202042 0 -0.0308423)
(0.213279 0 -0.0330397)
(0.227659 0 -0.03598)
(0.246032 0 -0.0400038)
(0.269174 0 -0.0455068)
(0.297544 0 -0.0528965)
(0.330824 0 -0.0624333)
(0.366477 0 -0.0737629)
(0.389024 0 -0.0802829)
(0 0 0)
(0.0263699 0 -0.00283415)
(0.0499516 0 -0.00539904)
(0.0702024 0 -0.00766762)
(0.0875593 0 -0.00970423)
(0.102415 0 -0.0115584)
(0.115109 0 -0.013266)
(0.125938 0 -0.0148544)
(0.135175 0 -0.0163451)
(0.143066 0 -0.0177563)
(0.149831 0 -0.0191014)
(0.155674 0 -0.0203916)
(0.160795 0 -0.0216369)
(0.165378 0 -0.022845)
(0.169627 0 -0.0240316)
(0.173741 0 -0.025211)
(0.177932 0 -0.026403)
(0.182436 0 -0.0276363)
(0.187511 0 -0.0289477)
(0.193446 0 -0.0303884)
(0.2006 0 -0.0320361)
(0.209382 0 -0.0339941)
(0.220265 0 -0.0363984)
(0.233843 0 -0.0394467)
(0.250876 0 -0.0434237)
(0.27219 0 -0.0486854)
(0.298451 0 -0.0556094)
(0.330066 0 -0.0645671)
(0.366332 0 -0.0756064)
(0.404206 0 -0.0881367)
(0.432231 0 -0.0957619)
(0 0 0)
(0.0266931 0 -0.00303334)
(0.0505907 0 -0.00578137)
(0.0711609 0 -0.00821653)
(0.0888556 0 -0.0104084)
(0.104071 0 -0.0124096)
(0.11715 0 -0.0142593)
(0.128399 0 -0.0159881)
(0.138098 0 -0.0176212)
(0.146498 0 -0.0191783)
(0.153819 0 -0.0206735)
(0.160278 0 -0.0221232)
(0.166079 0 -0.0235406)
(0.171415 0 -0.0249371)
(0.176499 0 -0.0263329)
(0.181543 0 -0.0277493)
(0.186768 0 -0.0292119)
(0.192421 0 -0.030758)
(0.198775 0 -0.032435)
(0.206131 0 -0.0343046)
(0.214858 0 -0.036458)
(0.22539 0 -0.0390188)
(0.238213 0 -0.0421431)
(0.253935 0 -0.0460519)
(0.273321 0 -0.0510547)
(0.297067 0 -0.0574913)
(0.325783 0 -0.0657433)
(0.359783 0 -0.0761585)
(0.398048 0 -0.0886313)
(0.437719 0 -0.102549)
(0.475541 0 -0.111524)
(0 0 0)
(0.0270282 0 -0.00322936)
(0.0512569 0 -0.00615857)
(0.0721624 0 -0.00875996)
(0.0902059 0 -0.011107)
(0.105791 0 -0.0132555)
(0.119269 0 -0.0152487)
(0.130952 0 -0.0171205)
(0.141124 0 -0.018898)
(0.150039 0 -0.0206033)
(0.157928 0 -0.0222546)
(0.165012 0 -0.0238704)
(0.1715 0 -0.0254675)
(0.177597 0 -0.0270634)
(0.18352 0 -0.028681)
(0.189486 0 -0.0303465)
(0.195724 0 -0.0320922)
(0.202498 0 -0.0339651)
(0.210091 0 -0.0360229)
(0.218807 0 -0.0383364)
(0.229011 0 -0.0410057)
(0.241137 0 -0.0441668)
(0.255678 0 -0.0479956)
(0.273247 0 -0.0527337)
(0.294485 0 -0.0586753)
(0.319935 0 -0.0661431)
(0.350093 0 -0.0755252)
(0.384965 0 -0.0871581)
(0.423097 0 -0.101037)
(0.461358 0 -0.117062)
(0.518903 0 -0.127468)
(0 0 0)
(0.0239655 0 0)
(0.0452044 0 0)
(0.0631087 0 0)
(0.0780186 0 0)
(0.09026 0 0)
(0.100118 0 0)
(0.107836 0 0)
(0.113626 0 0)
(0.117677 0 0)
(0.120155 0 0)
(0.121203 0 0)
(0.120943 0 0)
(0.119487 0 0)
(0.116933 0 0)
(0.113372 0 0)
(0.108887 0 0)
(0.103556 0 0)
(0.0974539 0 0)
(0.0906555 0 0)
(0.0832368 0 0)
(0.0752789 0 0)
(0.0668696 0 0)
(0.0581076 0 0)
(0.0491086 0 0)
(0.0400169 0 0)
(0.0310253 0 0)
(0.0224498 0 0)
(0.0148293 0 0)
(0.00935224 0 0)
(0 0 0)
(0 0 0)
(0.0239818 0 -0.000223712)
(0.0452362 0 -0.000424679)
(0.0631563 0 -0.000600229)
(0.0780828 0 -0.000755037)
(0.0903418 0 -0.000892459)
(0.10022 0 -0.0010148)
(0.107959 0 -0.00112388)
(0.113772 0 -0.00122043)
(0.117849 0 -0.00130462)
(0.120357 0 -0.00137644)
(0.121438 0 -0.0014351)
(0.121216 0 -0.0014793)
(0.119803 0 -0.00150732)
(0.117298 0 -0.00151699)
(0.113792 0 -0.00150572)
(0.10937 0 -0.00147032)
(0.104111 0 -0.00140682)
(0.0980918 0 -0.00131044)
(0.0913891 0 -0.00117555)
(0.0840819 0 -0.000995501)
(0.0762552 0 -0.000762533)
(0.068003 0 -0.000467324)
(0.0594321 0 -9.85998e-05)
(0.0506718 0 0.000356949)
(0.0418867 0 0.00091483)
(0.0332856 0 0.00159464)
(0.0251973 0 0.00241889)
(0.0182201 0 0.00339785)
(0.0137074 0 0.00444102)
(0.00648548 0 0.00615426)
(0 0 0)
(0.0240308 0 -0.00044791)
(0.045333 0 -0.000850385)
(0.063301 0 -0.00120212)
(0.0782769 0 -0.00151251)
(0.090588 0 -0.00178825)
(0.100522 0 -0.00203381)
(0.108325 0 -0.0022517)
(0.114207 0 -0.00244462)
(0.118364 0 -0.00261424)
(0.120961 0 -0.00275953)
(0.122142 0 -0.00287888)
(0.122034 0 -0.00296983)
(0.120748 0 -0.00302902)
(0.118388 0 -0.00305224)
(0.115047 0 -0.00303457)
(0.110813 0 -0.00296996)
(0.105769 0 -0.00285073)
(0.0999975 0 -0.00266782)
(0.0935798 0 -0.00241053)
(0.0866029 0 -0.00206634)
(0.0791639 0 -0.00162105)
(0.0713726 0 -0.00105779)
(0.0633566 0 -0.000356207)
(0.0552758 0 0.000507027)
(0.0473534 0 0.00155671)
(0.039878 0 0.00281828)
(0.0332466 0 0.00430783)
(0.028122 0 0.00600715)
(0.0261505 0 0.0076641)
(0.0212874 0 0.0103101)
(0 0 0)
(0.024112 0 -0.000671856)
(0.0454931 0 -0.00127572)
(0.0635402 0 -0.00180372)
(0.0785978 0 -0.00227008)
(0.0909947 0 -0.0026848)
(0.101021 0 -0.0030546)
(0.108927 0 -0.00338366)
(0.114927 0 -0.00367594)
(0.119216 0 -0.00393372)
(0.121961 0 -0.00415572)
(0.123308 0 -0.00433978)
(0.123388 0 -0.0044825)
(0.122314 0 -0.00457909)
(0.120194 0 -0.00462343)
(0.117125 0 -0.00460889)
(0.113202 0 -0.00452717)
(0.108514 0 -0.00436744)
(0.103151 0 -0.00411721)
(0.0972042 0 -0.00376191)
(0.0907707 0 -0.00328444)
(0.0839679 0 -0.00266697)
(0.0769328 0 -0.00188894)
(0.069822 0 -0.000925402)
(0.0628335 0 0.00025042)
(0.0562491 0 0.00166204)
(0.0504783 0 0.00331789)
(0.0461029 0 0.00518898)
(0.0438813 0 0.00718088)
(0.045504 0 0.00882934)
(0.043645 0 0.0116057)
(0 0 0)
(0.0242241 0 -0.000894897)
(0.0457144 0 -0.00169947)
(0.0638713 0 -0.00240335)
(0.0790424 0 -0.00302581)
(0.091558 0 -0.00358006)
(0.101713 0 -0.00407513)
(0.109763 0 -0.00451787)
(0.115926 0 -0.00491277)
(0.120397 0 -0.00526201)
(0.123345 0 -0.00556486)
(0.124922 0 -0.005819)
(0.125259 0 -0.00602038)
(0.124479 0 -0.00616313)
(0.122688 0 -0.00623927)
(0.119994 0 -0.00624147)
(0.1165 0 -0.00616039)
(0.112302 0 -0.00598259)
(0.107503 0 -0.00569358)
(0.102207 0 -0.00527688)
(0.0965256 0 -0.00471293)
(0.090597 0 -0.00398223)
(0.0845913 0 -0.00306467)
(0.0787038 0 -0.00193742)
(0.0731961 0 -0.000582612)
(0.0684077 0 0.00100711)
(0.0648214 0 0.00281064)
(0.0632078 0 0.0047286)
(0.0645911 0 0.00652587)
(0.070509 0 0.00753428)
(0.0717591 0 0.00984312)
(0 0 0)
(0.0243661 0 -0.00111735)
(0.0459949 0 -0.00212233)
(0.064292 0 -0.00300212)
(0.0796073 0 -0.00378043)
(0.0922726 0 -0.00447422)
(0.102591 0 -0.00509578)
(0.110824 0 -0.00565397)
(0.117192 0 -0.00615408)
(0.121892 0 -0.00659865)
(0.125097 0 -0.00698749)
(0.126963 0 -0.00731844)
(0.127627 0 -0.00758733)
(0.127217 0 -0.00778781)
(0.125847 0 -0.0079114)
(0.123629 0 -0.00794966)
(0.120675 0 -0.00789207)
(0.117094 0 -0.00772445)
(0.113001 0 -0.00743239)
(0.108522 0 -0.00699977)
(0.103786 0 -0.00640713)
(0.0989547 0 -0.00563681)
(0.0942334 0 -0.00467385)
(0.0898574 0 -0.00350347)
(0.0861466 0 -0.00212424)
(0.0835307 0 -0.00056231)
(0.082584 0 0.0011114)
(0.0841204 0 0.00272709)
(0.0894209 0 0.00388203)
(0.0999542 0 0.0037355)
(0.104308 0 0.0052273)
(0 0 0)
(0.0245372 0 -0.00133949)
(0.0463323 0 -0.00254484)
(0.0647953 0 -0.00360077)
(0.080282 0 -0.00453487)
(0.0931303 0 -0.00536885)
(0.103649 0 -0.00611891)
(0.112103 0 -0.00679522)
(0.118717 0 -0.00740414)
(0.123692 0 -0.00794899)
(0.127205 0 -0.0084302)
(0.129418 0 -0.00884624)
(0.130474 0 -0.00919332)
(0.130507 0 -0.0094653)
(0.129641 0 -0.00965475)
(0.127995 0 -0.00975165)
(0.125688 0 -0.00974413)
(0.12284 0 -0.00961908)
(0.119586 0 -0.00936471)
(0.116076 0 -0.00896842)
(0.112459 0 -0.00841316)
(0.108923 0 -0.00768636)
(0.105712 0 -0.00678316)
(0.103113 0 -0.00570577)
(0.101484 0 -0.00447439)
(0.101327 0 -0.00315276)
(0.103347 0 -0.00188248)
(0.108404 0 -0.000916933)
(0.117818 0 -0.000787343)
(0.132957 0 -0.00244631)
(0.140337 0 -0.00199553)
(0 0 0)
(0.0247355 0 -0.00156039)
(0.0467228 0 -0.00296533)
(0.0653755 0 -0.00419717)
(0.0810604 0 -0.0052884)
(0.0941249 0 -0.00626502)
(0.104879 0 -0.00714617)
(0.11359 0 -0.00794385)
(0.12049 0 -0.00866593)
(0.125783 0 -0.00931673)
(0.129652 0 -0.00989748)
(0.132265 0 -0.0104078)
(0.133773 0 -0.0108449)
(0.134315 0 -0.011203)
(0.134024 0 -0.0114748)
(0.13303 0 -0.0116518)
(0.131466 0 -0.0117244)
(0.129465 0 -0.0116808)
(0.127176 0 -0.0115116)
(0.12477 0 -0.0112089)
(0.122428 0 -0.010763)
(0.120364 0 -0.0101698)
(0.118856 0 -0.00943811)
(0.118244 0 -0.00859244)
(0.11895 0 -0.00768549)
(0.121535 0 -0.00682505)
(0.126759 0 -0.00621461)
(0.13562 0 -0.00621334)
(0.149292 0 -0.00742886)
(0.168809 0 -0.0108158)
(0.179041 0 -0.0116026)
(0 0 0)
(0.0249583 0 -0.00177919)
(0.0471619 0 -0.00338219)
(0.0660301 0 -0.00478934)
(0.0819404 0 -0.0060386)
(0.0952484 0 -0.00715964)
(0.106267 0 -0.008174)
(0.115268 0 -0.00909615)
(0.122489 0 -0.00993569)
(0.128139 0 -0.0106983)
(0.132407 0 -0.0113859)
(0.135468 0 -0.0120001)
(0.137482 0 -0.0125399)
(0.138594 0 -0.0130001)
(0.138945 0 -0.0133746)
(0.13868 0 -0.0136573)
(0.137944 0 -0.0138415)
(0.13689 0 -0.0139206)
(0.135676 0 -0.0138863)
(0.134491 0 -0.0137367)
(0.133556 0 -0.0134745)
(0.133113 0 -0.0131071)
(0.133474 0 -0.0126607)
(0.135035 0 -0.0121871)
(0.138272 0 -0.0117743)
(0.14382 0 -0.0115812)
(0.152464 0 -0.0118684)
(0.165279 0 -0.0130889)
(0.183226 0 -0.015885)
(0.206798 0 -0.0210926)
(0.219613 0 -0.0232266)
(0 0 0)
(0.0252033 0 -0.00199554)
(0.0476458 0 -0.00379484)
(0.0667527 0 -0.00537643)
(0.0829124 0 -0.00678353)
(0.0964883 0 -0.00804963)
(0.107798 0 -0.00919899)
(0.117118 0 -0.0102485)
(0.124691 0 -0.0112098)
(0.130734 0 -0.0120903)
(0.135443 0 -0.0128941)
(0.138998 0 -0.0136239)
(0.141566 0 -0.0142799)
(0.143302 0 -0.0148591)
(0.144361 0 -0.0153591)
(0.144893 0 -0.015775)
(0.145052 0 -0.0161016)
(0.145017 0 -0.0163401)
(0.144966 0 -0.0164894)
(0.145108 0 -0.0165548)
(0.145692 0 -0.0165511)
(0.14699 0 -0.0165004)
(0.149358 0 -0.0164505)
(0.153239 0 -0.0164826)
(0.159173 0 -0.0167247)
(0.167835 0 -0.0173815)
(0.180078 0 -0.0187787)
(0.196905 0 -0.0214148)
(0.219005 0 -0.0259185)
(0.246232 0 -0.032914)
(0.26129 0 -0.0363695)
(0 0 0)
(0.0254693 0 -0.00220961)
(0.0481715 0 -0.00420361)
(0.0675386 0 -0.00595891)
(0.08397 0 -0.00752391)
(0.0978371 0 -0.00893605)
(0.109462 0 -0.0102225)
(0.119128 0 -0.0114026)
(0.127084 0 -0.0124902)
(0.133552 0 -0.0134951)
(0.13874 0 -0.0144248)
(0.14283 0 -0.0152817)
(0.145992 0 -0.0160667)
(0.148396 0 -0.0167811)
(0.150204 0 -0.0174246)
(0.151582 0 -0.017997)
(0.152699 0 -0.0184987)
(0.153746 0 -0.0189354)
(0.154928 0 -0.0193155)
(0.156476 0 -0.0196548)
(0.15866 0 -0.0199799)
(0.161788 0 -0.0203305)
(0.166266 0 -0.0207815)
(0.172578 0 -0.0214425)
(0.181311 0 -0.022479)
(0.193197 0 -0.0241436)
(0.209155 0 -0.0268227)
(0.229977 0 -0.031003)
(0.256034 0 -0.0372416)
(0.286453 0 -0.0458764)
(0.303525 0 -0.0504947)
(0 0 0)
(0.0257549 0 -0.00242147)
(0.0487357 0 -0.00460863)
(0.0683825 0 -0.00653695)
(0.0851062 0 -0.00826004)
(0.0992858 0 -0.0098193)
(0.111249 0 -0.0112449)
(0.121285 0 -0.0125587)
(0.129648 0 -0.013777)
(0.136571 0 -0.0149122)
(0.142263 0 -0.015974)
(0.146913 0 -0.0169658)
(0.150702 0 -0.0178917)
(0.153808 0 -0.0187566)
(0.156404 0 -0.0195633)
(0.15867 0 -0.0203169)
(0.160797 0 -0.0210256)
(0.162977 0 -0.0216981)
(0.165436 0 -0.0223519)
(0.168438 0 -0.0230172)
(0.172276 0 -0.023735)
(0.177292 0 -0.0245642)
(0.183925 0 -0.0256022)
(0.192717 0 -0.0269951)
(0.204295 0 -0.0289422)
(0.219455 0 -0.0317433)
(0.239097 0 -0.0358112)
(0.263804 0 -0.0415942)
(0.293612 0 -0.0495271)
(0.326803 0 -0.0595967)
(0.346109 0 -0.0651856)
(0 0 0)
(0.0260563 0 -0.00263002)
(0.0493315 0 -0.0050078)
(0.069274 0 -0.00710752)
(0.0863072 0 -0.00898807)
(0.100817 0 -0.0106949)
(0.113138 0 -0.0122611)
(0.123563 0 -0.0137112)
(0.132354 0 -0.0150636)
(0.139751 0 -0.0163339)
(0.145969 0 -0.0175337)
(0.151204 0 -0.0186695)
(0.155648 0 -0.0197493)
(0.159486 0 -0.02078)
(0.162904 0 -0.02177)
(0.166088 0 -0.0227276)
(0.169242 0 -0.023667)
(0.172582 0 -0.0246068)
(0.176348 0 -0.0255736)
(0.180823 0 -0.0266097)
(0.186332 0 -0.0277732)
(0.193254 0 -0.0291457)
(0.202042 0 -0.0308423)
(0.213279 0 -0.0330397)
(0.227659 0 -0.03598)
(0.246032 0 -0.0400038)
(0.269174 0 -0.0455068)
(0.297544 0 -0.0528965)
(0.330824 0 -0.0624333)
(0.366477 0 -0.0737629)
(0.389024 0 -0.0802829)
(0 0 0)
(0.0263699 0 -0.00283415)
(0.0499516 0 -0.00539904)
(0.0702024 0 -0.00766762)
(0.0875593 0 -0.00970423)
(0.102415 0 -0.0115584)
(0.115109 0 -0.013266)
(0.125938 0 -0.0148544)
(0.135175 0 -0.0163451)
(0.143066 0 -0.0177563)
(0.149831 0 -0.0191014)
(0.155674 0 -0.0203916)
(0.160795 0 -0.0216369)
(0.165378 0 -0.022845)
(0.169627 0 -0.0240316)
(0.173741 0 -0.025211)
(0.177932 0 -0.026403)
(0.182436 0 -0.0276363)
(0.187511 0 -0.0289477)
(0.193446 0 -0.0303884)
(0.2006 0 -0.0320361)
(0.209382 0 -0.0339941)
(0.220265 0 -0.0363984)
(0.233843 0 -0.0394467)
(0.250876 0 -0.0434237)
(0.27219 0 -0.0486854)
(0.298451 0 -0.0556094)
(0.330066 0 -0.0645671)
(0.366332 0 -0.0756064)
(0.404206 0 -0.0881367)
(0.432231 0 -0.0957619)
(0 0 0)
(0.0266931 0 -0.00303334)
(0.0505907 0 -0.00578137)
(0.0711609 0 -0.00821653)
(0.0888556 0 -0.0104084)
(0.104071 0 -0.0124096)
(0.11715 0 -0.0142593)
(0.128399 0 -0.0159881)
(0.138098 0 -0.0176212)
(0.146498 0 -0.0191783)
(0.153819 0 -0.0206735)
(0.160278 0 -0.0221232)
(0.166079 0 -0.0235406)
(0.171415 0 -0.0249371)
(0.176499 0 -0.0263329)
(0.181543 0 -0.0277493)
(0.186768 0 -0.0292119)
(0.192421 0 -0.030758)
(0.198775 0 -0.032435)
(0.206131 0 -0.0343046)
(0.214858 0 -0.036458)
(0.22539 0 -0.0390188)
(0.238213 0 -0.0421431)
(0.253935 0 -0.0460519)
(0.273321 0 -0.0510547)
(0.297067 0 -0.0574913)
(0.325783 0 -0.0657433)
(0.359783 0 -0.0761585)
(0.398048 0 -0.0886313)
(0.437719 0 -0.102549)
(0.475541 0 -0.111524)
(0 0 0)
(0.0270282 0 -0.00322936)
(0.0512569 0 -0.00615857)
(0.0721624 0 -0.00875996)
(0.0902059 0 -0.011107)
(0.105791 0 -0.0132555)
(0.119269 0 -0.0152487)
(0.130952 0 -0.0171205)
(0.141124 0 -0.018898)
(0.150039 0 -0.0206033)
(0.157928 0 -0.0222546)
(0.165012 0 -0.0238704)
(0.1715 0 -0.0254675)
(0.177597 0 -0.0270634)
(0.18352 0 -0.028681)
(0.189486 0 -0.0303465)
(0.195724 0 -0.0320922)
(0.202498 0 -0.0339651)
(0.210091 0 -0.0360229)
(0.218807 0 -0.0383364)
(0.229011 0 -0.0410057)
(0.241137 0 -0.0441668)
(0.255678 0 -0.0479956)
(0.273247 0 -0.0527337)
(0.294485 0 -0.0586753)
(0.319935 0 -0.0661431)
(0.350093 0 -0.0755252)
(0.384965 0 -0.0871581)
(0.423097 0 -0.101037)
(0.461358 0 -0.117062)
(0.518903 0 -0.127468)
(0 0 0)
(0.0182927 0 0)
(0.0410861 0 0)
(0.0809719 0 0)
(0.133167 0 0)
(0.186717 0 0)
(0.232702 0 0)
(0.268428 0 0)
(0.294906 0 0)
(0.314021 0 0)
(0.327412 0 0)
(0.336267 0 0)
(0.341401 0 0)
(0.343388 0 0)
(0.342629 0 0)
(0.33938 0 0)
(0.333785 0 0)
(0.325913 0 0)
(0.315786 0 0)
(0.303392 0 0)
(0.288697 0 0)
(0.271647 0 0)
(0.252176 0 0)
(0.230209 0 0)
(0.205662 0 0)
(0.178452 0 0)
(0.148489 0 0)
(0.115686 0 0)
(0.0799615 0 0)
(0.0411837 0 0)
(0 0 0)
(0.0053981 0 -0.00745878)
(0.0225818 0 -0.00861233)
(0.0459283 0 -0.010777)
(0.0858521 0 -0.0132824)
(0.137488 0 -0.0155534)
(0.190147 0 -0.0170459)
(0.235282 0 -0.017662)
(0.270365 0 -0.017615)
(0.29639 0 -0.0171627)
(0.315177 0 -0.0164997)
(0.328321 0 -0.0157212)
(0.336985 0 -0.0148586)
(0.341974 0 -0.0139257)
(0.343851 0 -0.0129649)
(0.343009 0 -0.0120042)
(0.339696 0 -0.0110811)
(0.334049 0 -0.0102116)
(0.326135 0 -0.00938758)
(0.315974 0 -0.00860498)
(0.303553 0 -0.00785938)
(0.288835 0 -0.00714511)
(0.271766 0 -0.00645572)
(0.252278 0 -0.0057842)
(0.230297 0 -0.00512302)
(0.205739 0 -0.00446409)
(0.178519 0 -0.00379864)
(0.148547 0 -0.00311706)
(0.115734 0 -0.00240858)
(0.0800007 0 -0.00166102)
(0.0412104 0 -0.000858842)
(0 0 0)
(0.0178465 0 -0.0150948)
(0.0349652 0 -0.0175588)
(0.059897 0 -0.0217941)
(0.100019 0 -0.0265413)
(0.150134 0 -0.0307415)
(0.200251 0 -0.0334326)
(0.242939 0 -0.034517)
(0.27614 0 -0.0344156)
(0.300802 0 -0.0335586)
(0.318597 0 -0.0322693)
(0.330998 0 -0.0307283)
(0.339096 0 -0.029028)
(0.343654 0 -0.0272164)
(0.345206 0 -0.0253577)
(0.344116 0 -0.0235168)
(0.34061 0 -0.0217476)
(0.334809 0 -0.0200667)
(0.32677 0 -0.0184684)
(0.316508 0 -0.0169466)
(0.304004 0 -0.0154931)
(0.289217 0 -0.0140972)
(0.27209 0 -0.0127469)
(0.252555 0 -0.0114288)
(0.230534 0 -0.0101286)
(0.205941 0 -0.00883043)
(0.17869 0 -0.00751745)
(0.14869 0 -0.00617088)
(0.11585 0 -0.00476965)
(0.0800863 0 -0.00328992)
(0.041259 0 -0.00170123)
(0 0 0)
(0.0371923 0 -0.0234259)
(0.0542929 0 -0.027112)
(0.081413 0 -0.03328)
(0.121688 0 -0.0399294)
(0.169449 0 -0.045538)
(0.215842 0 -0.0490126)
(0.254946 0 -0.0503586)
(0.2853 0 -0.0501317)
(0.307838 0 -0.0488779)
(0.324057 0 -0.0469987)
(0.335272 0 -0.0447385)
(0.342471 0 -0.0422559)
(0.346346 0 -0.0396435)
(0.347379 0 -0.0369833)
(0.345892 0 -0.0343648)
(0.342072 0 -0.0318392)
(0.336021 0 -0.0294237)
(0.327781 0 -0.0271181)
(0.317354 0 -0.0249157)
(0.304714 0 -0.0228054)
(0.289816 0 -0.0207727)
(0.272597 0 -0.0188008)
(0.252985 0 -0.0168709)
(0.230898 0 -0.0149623)
(0.20625 0 -0.0130528)
(0.17895 0 -0.0111178)
(0.148905 0 -0.00913014)
(0.116022 0 -0.00705912)
(0.0802123 0 -0.00487003)
(0.0413294 0 -0.00251842)
(0 0 0)
(0.0620797 0 -0.0328333)
(0.079411 0 -0.0375676)
(0.108856 0 -0.0454394)
(0.148963 0 -0.0535527)
(0.193704 0 -0.0600375)
(0.235644 0 -0.0638841)
(0.270425 0 -0.0652453)
(0.297249 0 -0.064771)
(0.317084 0 -0.0630841)
(0.331261 0 -0.0606337)
(0.340931 0 -0.0577139)
(0.346953 0 -0.0545205)
(0.349931 0 -0.0511878)
(0.350281 0 -0.0478266)
(0.348264 0 -0.0445219)
(0.344025 0 -0.0413223)
(0.337637 0 -0.0382485)
(0.329125 0 -0.0353037)
(0.318475 0 -0.0324807)
(0.305653 0 -0.0297666)
(0.290603 0 -0.0271438)
(0.273259 0 -0.0245916)
(0.253542 0 -0.0220865)
(0.231368 0 -0.0196028)
(0.206645 0 -0.017112)
(0.17928 0 -0.0145828)
(0.149176 0 -0.0119804)
(0.116236 0 -0.00926534)
(0.0803666 0 -0.00639294)
(0.0414142 0 -0.00330585)
(0 0 0)
(0.091495 0 -0.0435513)
(0.109231 0 -0.0491081)
(0.140765 0 -0.0583716)
(0.180193 0 -0.0674328)
(0.221382 0 -0.0742736)
(0.258413 0 -0.0780839)
(0.28843 0 -0.0791937)
(0.311298 0 -0.0783352)
(0.328042 0 -0.0761649)
(0.33985 0 -0.0731578)
(0.347712 0 -0.0696365)
(0.352347 0 -0.0658073)
(0.354262 0 -0.0618395)
(0.353797 0 -0.0578666)
(0.351141 0 -0.053961)
(0.346393 0 -0.0501691)
(0.339595 0 -0.0465131)
(0.330748 0 -0.0429974)
(0.319826 0 -0.0396148)
(0.306779 0 -0.0363511)
(0.291544 0 -0.0331864)
(0.274046 0 -0.0300968)
(0.254201 0 -0.0270551)
(0.231919 0 -0.024031)
(0.207105 0 -0.0209908)
(0.179661 0 -0.0178974)
(0.149486 0 -0.014709)
(0.116478 0 -0.0113782)
(0.0805387 0 -0.00785138)
(0.0415075 0 -0.00405963)
(0 0 0)
(0.124629 0 -0.0556468)
(0.142786 0 -0.0617388)
(0.175915 0 -0.0720243)
(0.214032 0 -0.0815105)
(0.251174 0 -0.0881966)
(0.282996 0 -0.0915785)
(0.308033 0 -0.0921862)
(0.32673 0 -0.0908085)
(0.340172 0 -0.0881075)
(0.349423 0 -0.0845574)
(0.355306 0 -0.0804764)
(0.358419 0 -0.0760911)
(0.35917 0 -0.0715866)
(0.357796 0 -0.0670886)
(0.354419 0 -0.062666)
(0.349092 0 -0.0583621)
(0.341825 0 -0.0541983)
(0.332595 0 -0.0501793)
(0.321358 0 -0.0462982)
(0.308052 0 -0.0425394)
(0.292603 0 -0.0388816)
(0.274927 0 -0.0352985)
(0.254933 0 -0.0317597)
(0.232527 0 -0.0282314)
(0.207608 0 -0.0246753)
(0.180073 0 -0.0210492)
(0.149818 0 -0.0173052)
(0.116734 0 -0.0133891)
(0.080719 0 -0.00923922)
(0.0416039 0 -0.00477646)
(0 0 0)
(0.160842 0 -0.0689874)
(0.179239 0 -0.0753249)
(0.213275 0 -0.0862251)
(0.249345 0 -0.0956157)
(0.281952 0 -0.101671)
(0.308374 0 -0.104278)
(0.328367 0 -0.104167)
(0.34285 0 -0.102159)
(0.352934 0 -0.0988917)
(0.359549 0 -0.0948072)
(0.363392 0 -0.0902205)
(0.364943 0 -0.0853696)
(0.364478 0 -0.0804226)
(0.362139 0 -0.0754873)
(0.357986 0 -0.0706303)
(0.352032 0 -0.0658922)
(0.344252 0 -0.0612929)
(0.334602 0 -0.056837)
(0.323019 0 -0.0525172)
(0.309427 0 -0.0483176)
(0.29374 0 -0.0442155)
(0.275867 0 -0.0401829)
(0.25571 0 -0.0361872)
(0.233167 0 -0.0321915)
(0.208132 0 -0.028154)
(0.180499 0 -0.0240279)
(0.150157 0 -0.0197603)
(0.116993 0 -0.015291)
(0.0808984 0 -0.0105514)
(0.0416987 0 -0.00545369)
(0 0 0)
(0.199477 0 -0.0832895)
(0.217853 0 -0.0896469)
(0.251985 0 -0.100742)
(0.285159 0 -0.109518)
(0.312731 0 -0.114503)
(0.333631 0 -0.116045)
(0.348643 0 -0.115049)
(0.359003 0 -0.112334)
(0.365788 0 -0.10848)
(0.369827 0 -0.103898)
(0.37169 0 -0.0988885)
(0.371698 0 -0.0936615)