/*--------------------------------*- C++ -*----------------------------------*\
| =========                 |                                                 |
| \\      /  F ield         | OpenFOAM: The Open Source CFD Toolbox           |
|  \\    /   O peration     | Version:  5.x                                   |
|   \\  /    A nd           | Web:      www.OpenFOAM.org                      |
|    \\/     M anipulation  |                                                 |
\*---------------------------------------------------------------------------*/
FoamFile
{
    version     2.0;
    format      ascii;
    class       volVectorField;
    location    "3.3";
    object      cellDisplacement;
}
// * * * * * * * * * * * * * * * * * * * * * * * * * * * * * * * * * * * * * //

dimensions      [0 1 0 0 0 0 0];

internalField   nonuniform List<vector> 
2790
(
(0.00427098 0 -9.16499e-07)
(0.01225 0 -2.54762e-06)
(0.0191698 0 -3.73216e-06)
(0.0251023 0 -4.37473e-06)
(0.0301235 0 -4.39236e-06)
(0.0343041 0 -3.70165e-06)
(0.0377093 0 -2.21167e-06)
(0.040398 0 1.80958e-07)
(0.0424234 0 3.59575e-06)
(0.0438328 0 8.17158e-06)
(0.0446689 0 1.40686e-05)
(0.0449692 0 2.14692e-05)
(0.0447677 0 3.05779e-05)
(0.0440948 0 4.16218e-05)
(0.0429786 0 5.48473e-05)
(0.0414459 0 7.05131e-05)
(0.0395227 0 8.88855e-05)
(0.0372365 0 0.000110231)
(0.034617 0 0.000134801)
(0.0316982 0 0.000162806)
(0.0285205 0 0.000194403)
(0.0251323 0 0.000229657)
(0.021593 0 0.000268516)
(0.0179755 0 0.000310756)
(0.0143697 0 0.000355927)
(0.0108856 0 0.000403269)
(0.00765896 0 0.000451635)
(0.00485845 0 0.000499421)
(0.00270201 0 0.000544353)
(0.00151325 0 0.000581751)
(0.00427716 0 -2.77056e-06)
(0.0122682 0 -7.70547e-06)
(0.0191998 0 -1.13018e-05)
(0.0251445 0 -1.32769e-05)
(0.0301785 0 -1.33853e-05)
(0.0343732 0 -1.138e-05)
(0.037794 0 -6.99167e-06)
(0.0405003 0 8.58901e-08)
(0.0425456 0 1.02065e-05)
(0.0439778 0 2.37816e-05)
(0.0448398 0 4.12856e-05)
(0.0451698 0 6.32585e-05)
(0.0450022 0 9.03062e-05)
(0.0443679 0 0.000123102)
(0.0432957 0 0.000162375)
(0.0418127 0 0.000208893)
(0.0399455 0 0.000263441)
(0.0377216 0 0.000326813)
(0.0351711 0 0.000399748)
(0.0323282 0 0.000482874)
(0.0292327 0 0.000576643)
(0.0259326 0 0.000681241)
(0.0224865 0 0.000796488)
(0.0189666 0 0.000921689)
(0.0154617 0 0.00105544)
(0.0120821 0 0.00119533)
(0.00896432 0 0.00133754)
(0.00627975 0 0.0014762)
(0.00425103 0 0.00160219)
(0.003197 0 0.00169856)
(0.00428899 0 -4.68491e-06)
(0.0123032 0 -1.30431e-05)
(0.0192578 0 -1.91747e-05)
(0.0252261 0 -2.26212e-05)
(0.0302855 0 -2.29837e-05)
(0.0345079 0 -1.98615e-05)
(0.0379597 0 -1.2817e-05)
(0.0407009 0 -1.35325e-06)
(0.0427858 0 1.51039e-05)
(0.0442632 0 3.72221e-05)
(0.0451768 0 6.5773e-05)
(0.0455659 0 0.000101633)
(0.0454658 0 0.000145784)
(0.0449084 0 0.000199321)
(0.0439235 0 0.000263432)
(0.0425395 0 0.00033936)
(0.0407834 0 0.000428371)
(0.0386836 0 0.000531758)
(0.0362705 0 0.000650723)
(0.0335784 0 0.000786275)
(0.0306467 0 0.000939122)
(0.0275223 0 0.00110953)
(0.0242623 0 0.00129712)
(0.0209365 0 0.00150066)
(0.0176318 0 0.00171769)
(0.0144566 0 0.00194399)
(0.0115471 0 0.00217262)
(0.00907229 0 0.00239237)
(0.0072479 0 0.00258539)
(0.00637497 0 0.0027226)
(0.00430653 0 -6.69592e-06)
(0.0123552 0 -1.86696e-05)
(0.0193438 0 -2.75368e-05)
(0.0253472 0 -3.268e-05)
(0.0304442 0 -3.35632e-05)
(0.0347078 0 -2.96474e-05)
(0.0382054 0 -2.03439e-05)
(0.0409983 0 -4.98409e-06)
(0.043142 0 1.72028e-05)
(0.0446864 0 4.71143e-05)
(0.0456764 0 8.57905e-05)
(0.0461528 0 0.00013441)
(0.0461525 0 0.000194289)
(0.0457086 0 0.000266898)
(0.0448527 0 0.000353849)
(0.0436152 0 0.000456812)
(0.0420236 0 0.000577445)
(0.0401074 0 0.000717517)
(0.0378981 0 0.000878636)
(0.03543 0 0.00106214)
(0.032742 0 0.00126893)
(0.0298796 0 0.00149926)
(0.0268972 0 0.0017525)
(0.0238608 0 0.00202675)
(0.0208527 0 0.00231841)
(0.017977 0 0.00262149)
(0.0153682 0 0.00292632)
(0.0131895 0 0.00321698)
(0.0116435 0 0.00346865)
(0.0110124 0 0.00364231)
(0.00432958 0 -8.83866e-06)
(0.0124235 0 -2.46902e-05)
(0.0194568 0 -3.65665e-05)
(0.0255065 0 -4.37144e-05)
(0.0306529 0 -4.54826e-05)
(0.0349706 0 -4.12152e-05)
(0.0385283 0 -3.01951e-05)
(0.041389 0 -1.1608e-05)
(0.0436096 0 1.54808e-05)
(0.0452415 0 5.21614e-05)
(0.0463313 0 9.97049e-05)
(0.0469218 0 0.000159548)
(0.047052 0 0.000233275)
(0.0467561 0 0.00032267)
(0.0460682 0 0.000429729)
(0.0450229 0 0.000556494)
(0.0436461 0 0.000704838)
(0.0419702 0 0.00087702)
(0.0400279 0 0.00107497)
(0.037854 0 0.00130028)
(0.0354872 0 0.00155397)
(0.032971 0 0.0018362)
(0.0303564 0 0.00214596)
(0.0277039 0 0.00248057)
(0.0250875 0 0.00283516)
(0.0226 0 0.00320206)
(0.0203798 0 0.00357002)
(0.0185834 0 0.00391965)
(0.0173987 0 0.00422191)
(0.0170876 0 0.00442968)
(0.00435789 0 -1.11452e-05)
(0.0125074 0 -3.12011e-05)
(0.0195957 0 -4.64269e-05)
(0.0257022 0 -5.59632e-05)
(0.0309092 0 -5.90697e-05)
(0.0352931 0 -5.50007e-05)
(0.0389243 0 -4.29383e-05)
(0.0418678 0 -2.19533e-05)
(0.0441825 0 9.0109e-06)
(0.0459212 0 5.11884e-05)
(0.0471323 0 0.000106038)
(0.0478614 0 0.000175204)
(0.0481511 0 0.000260452)
(0.0480349 0 0.000363779)
(0.0475496 0 0.00048754)
(0.046731 0 0.000633765)
(0.0456133 0 0.000804752)
(0.0442276 0 0.00100316)
(0.0426084 0 0.00123108)
(0.0407915 0 0.00149026)
(0.0388156 0 0.00178177)
(0.0367233 0 0.00210563)
(0.0345621 0 0.00246038)
(0.0323873 0 0.00284253)
(0.0302648 0 0.00324592)
(0.028271 0 0.00366188)
(0.0265191 0 0.00407614)
(0.0251892 0 0.00446696)
(0.0244504 0 0.00480186)
(0.0245415 0 0.00502752)
(0.00439113 0 -1.36439e-05)
(0.0126059 0 -3.82871e-05)
(0.0197587 0 -5.72618e-05)
(0.0259319 0 -6.96363e-05)
(0.0312102 0 -7.46128e-05)
(0.0356716 0 -7.1387e-05)
(0.0393886 0 -5.90722e-05)
(0.0424286 0 -3.66566e-05)
(0.0448531 0 -3.01306e-06)
(0.0467164 0 4.31725e-05)
(0.048068 0 0.000103504)
(0.0489575 0 0.000179787)
(0.0494269 0 0.000273791)
(0.0495171 0 0.000387618)
(0.0492664 0 0.000523786)
(0.0487097 0 0.00068453)
(0.0478891 0 0.000872486)
(0.0468375 0 0.00109022)
(0.0455906 0 0.00134003)
(0.0441858 0 0.00162373)
(0.0426629 0 0.00194238)
(0.0410635 0 0.00229583)
(0.0394324 0 0.00268222)
(0.0378195 0 0.00309733)
(0.0362818 0 0.00353385)
(0.0348865 0 0.00398059)
(0.033702 0 0.0044211)
(0.0329123 0 0.00483001)
(0.0326852 0 0.00516904)
(0.0332288 0 0.00538136)
(0.00442893 0 -1.63583e-05)
(0.0127179 0 -4.60189e-05)
(0.0199441 0 -6.91913e-05)
(0.0261932 0 -8.49091e-05)
(0.0315523 0 -9.23526e-05)
(0.0361017 0 -9.0694e-05)
(0.0399156 0 -7.90142e-05)
(0.0430643 0 -5.62453e-05)
(0.0456127 0 -2.12516e-05)
(0.0476121 0 2.73544e-05)
(0.0491195 0 9.11035e-05)
(0.050187 0 0.000171873)
(0.0508572 0 0.000271533)
(0.0511777 0 0.000392235)
(0.0511886 0 0.000536407)
(0.0509294 0 0.000706455)
(0.0504417 0 0.000904959)
(0.0497632 0 0.00113446)
(0.0489322 0 0.00139727)
(0.0479884 0 0.00169521)
(0.0469736 0 0.00202921)
(0.0459296 0 0.00239893)
(0.0448982 0 0.00280213)
(0.0439231 0 0.00323392)
(0.0430507 0 0.00368571)
(0.0423333 0 0.00414393)
(0.0418257 0 0.00459039)
(0.0416284 0 0.00499419)
(0.0419468 0 0.00530995)
(0.0429386 0 0.00548001)
(0.00447083 0 -1.93066e-05)
(0.0128421 0 -5.44511e-05)
(0.0201497 0 -8.23077e-05)
(0.0264829 0 -0.000101917)
(0.0319317 0 -0.000112474)
(0.0365784 0 -0.000113167)
(0.0404985 0 -0.000103089)
(0.043766 0 -8.11227e-05)
(0.0464446 0 -4.61788e-05)
(0.0485916 0 3.05578e-06)
(0.0502706 0 6.80846e-05)
(0.0515323 0 0.000150715)
(0.0524255 0 0.000252778)
(0.0529966 0 0.000376407)
(0.0532912 0 0.000523879)
(0.0533531 0 0.000697519)
(0.0532258 0 0.000899729)
(0.0529511 0 0.00113287)
(0.0525705 0 0.0013991)
(0.0521256 0 0.00170018)
(0.0516632 0 0.00203678)
(0.0512257 0 0.0024083)
(0.0508533 0 0.00281221)
(0.0505828 0 0.00324326)
(0.0504488 0 0.00369217)
(0.0504841 0 0.00414412)
(0.0507241 0 0.00457737)
(0.0511918 0 0.00495923)
(0.0520732 0 0.00523835)
(0.0534763 0 0.00535697)
(0.00451633 0 -2.2501e-05)
(0.0129769 0 -6.36201e-05)
(0.0203729 0 -9.6673e-05)
(0.0267975 0 -0.000120749)
(0.032344 0 -0.000135099)
(0.0370962 0 -0.000138969)
(0.0411269 0 -0.000131381)
(0.0445172 0 -0.000111463)
(0.0473365 0 -7.80769e-05)
(0.0496472 0 -3.01003e-05)
(0.0515096 0 3.39363e-05)
(0.0529783 0 0.00011573)
(0.0541079 0 0.000216864)
(0.0549441 0 0.000339379)
(0.0555382 0 0.000485293)
(0.0559381 0 0.000656655)
(0.0561904 0 0.000855531)
(0.0563411 0 0.0010839)
(0.0564348 0 0.00134355)
(0.0565121 0 0.0016362)
(0.0566313 0 0.00196204)
(0.0568366 0 0.00232006)
(0.0571673 0 0.00270756)
(0.0576552 0 0.00311931)
(0.0583226 0 0.00354625)
(0.0591802 0 0.00397364)
(0.0602255 0 0.00437915)
(0.0614459 0 0.00473026)
(0.0629253 0 0.00497233)
(0.064718 0 0.00504729)
(0.00456489 0 -2.59473e-05)
(0.0131208 0 -7.35439e-05)
(0.0206109 0 -0.000112318)
(0.0271332 0 -0.000141452)
(0.0327842 0 -0.000160286)
(0.0376416 0 -0.000168078)
(0.0417872 0 -0.000163972)
(0.0453119 0 -0.00014733)
(0.0482829 0 -0.000117125)
(0.0507647 0 -7.22657e-05)
(0.052819 0 -1.15072e-05)
(0.0545019 0 6.67892e-05)
(0.0558698 0 0.000163908)
(0.056977 0 0.000281351)
(0.0578778 0 0.00042095)
(0.0586229 0 0.000584297)
(0.0592627 0 0.000772945)
(0.0598477 0 0.000988258)
(0.0604275 0 0.00123122)
(0.0610508 0 0.00150323)
(0.0617628 0 0.00180488)
(0.0626262 0 0.00213376)
(0.0636834 0 0.00248693)
(0.0649631 0 0.00285966)
(0.0664792 0 0.00324409)
(0.0682238 0 0.00362759)
(0.0701597 0 0.00399054)
(0.0722179 0 0.00430423)
(0.0743657 0 0.00451324)
(0.0765678 0 0.00455433)
(0.00461588 0 -2.96452e-05)
(0.0132718 0 -8.42209e-05)
(0.0208607 0 -0.000129239)
(0.0274855 0 -0.00016402)
(0.0332422 0 -0.000188043)
(0.0382077 0 -0.000200474)
(0.0424779 0 -0.00020095)
(0.0461427 0 -0.000188823)
(0.0492711 0 -0.000163281)
(0.0519285 0 -0.000123337)
(0.0541734 0 -6.78487e-05)
(0.0560708 0 4.22459e-06)
(0.0576791 0 9.41715e-05)
(0.0590602 0 0.000202883)
(0.0602679 0 0.000331675)
(0.0613566 0 0.00048162)
(0.0623809 0 0.000653601)
(0.0633954 0 0.000848218)
(0.0644559 0 0.00106565)
(0.0656207 0 0.00130561)
(0.0669309 0 0.00156864)
(0.0684412 0 0.00185316)
(0.0702193 0 0.00215389)
(0.0722924 0 0.00246676)
(0.0746731 0 0.00278584)
(0.0773449 0 0.00310247)
(0.0802456 0 0.0034033)
(0.0832541 0 0.00366803)
(0.0861882 0 0.00384448)
(0.0888637 0 0.00385552)
(0.0046687 0 -3.35875e-05)
(0.0134281 0 -9.56304e-05)
(0.021119 0 -0.000147401)
(0.0278507 0 -0.000188398)
(0.0337114 0 -0.000218198)
(0.0387885 0 -0.000236157)
(0.0431898 0 -0.000242188)
(0.0469989 0 -0.000235751)
(0.0502878 0 -0.000216312)
(0.053115 0 -0.000182845)
(0.0555494 0 -0.000134661)
(0.0576641 0 -7.11792e-05)
(0.0595171 0 8.47262e-06)
(0.0611693 0 0.000104907)
(0.0626786 0 0.000218756)
(0.0641025 0 0.000350409)
(0.0654988 0 0.000499947)
(0.066926 0 0.000667039)
(0.0684433 0 0.000850839)
(0.070111 0 0.00104993)
(0.0719864 0 0.00126235)
(0.0741143 0 0.0014871)
(0.0765719 0 0.00171815)
(0.0793939 0 0.00195014)
(0.0826012 0 0.00217871)
(0.0861839 0 0.00239966)
(0.0900785 0 0.00260894)
(0.0941446 0 0.00280085)
(0.0980125 0 0.00294148)
(0.101283 0 0.00292893)
(0.0047227 0 -3.77608e-05)
(0.0135876 0 -0.000107732)
(0.0213818 0 -0.000166734)
(0.0282189 0 -0.000214466)
(0.0341862 0 -0.000250605)
(0.0393812 0 -0.00027495)
(0.043914 0 -0.000287453)
(0.047869 0 -0.000287776)
(0.0513125 0 -0.000275631)
(0.0543075 0 -0.000250187)
(0.0569364 0 -0.000211342)
(0.0592656 0 -0.000158699)
(0.0613567 0 -9.19013e-05)
(0.0632714 0 -1.08077e-05)
(0.0650699 0 8.45422e-05)
(0.0668122 0 0.000193775)
(0.0685582 0 0.000316077)
(0.0703686 0 0.000450072)
(0.0723046 0 0.000593706)
(0.074428 0 0.000744138)
(0.0767988 0 0.000897654)
(0.0794839 0 0.00105023)
(0.0825295 0 0.00119713)
(0.0859957 0 0.00132946)
(0.0899109 0 0.00144227)
(0.094283 0 0.0015332)
(0.0990736 0 0.0016069)
(0.104161 0 0.00167952)
(0.109099 0 0.00176451)
(0.113194 0 0.00175673)
(0.0047773 0 -4.21455e-05)
(0.0137487 0 -0.000120468)
(0.0216461 0 -0.000187144)
(0.0285867 0 -0.000242103)
(0.0346625 0 -0.000285178)
(0.0399777 0 -0.0003166)
(0.0446414 0 -0.000336415)
(0.0487384 0 -0.000344481)
(0.0523331 0 -0.000340646)
(0.0554982 0 -0.000324784)
(0.0583162 0 -0.0002969)
(0.0608527 0 -0.000257)
(0.0631714 0 -0.000205225)
(0.0653346 0 -0.000141971)
(0.067404 0 -6.79524e-05)
(0.0694403 0 1.5675e-05)
(0.0715045 0 0.00010718)
(0.0736575 0 0.000204115)
(0.0759606 0 0.00030316)
(0.0784751 0 0.000399983)
(0.0812614 0 0.000489117)
(0.084382 0 0.000564006)
(0.0878915 0 0.000616761)
(0.0918353 0 0.000637341)
(0.0962436 0 0.000615506)
(0.101135 0 0.000543116)
(0.106489 0 0.000420196)
(0.112222 0 0.000273643)
(0.117982 0 0.000201488)
(0.123114 0 0.000240502)
(0.00160837 0 -0.000606764)
(0.00313551 0 -0.000620339)
(0.00607814 0 -0.000635159)
(0.0101817 0 -0.000649279)
(0.015138 0 -0.000659211)
(0.0206233 0 -0.000662574)
(0.0263294 0 -0.000658279)
(0.0319905 0 -0.000646249)
(0.0373974 0 -0.000627311)
(0.0423987 0 -0.00060282)
(0.0468922 0 -0.000574288)
(0.0508145 0 -0.000543121)
(0.054129 0 -0.000510483)
(0.0568176 0 -0.000477282)
(0.0588729 0 -0.00044429)
(0.0602918 0 -0.00041197)
(0.0610718 0 -0.000380574)
(0.0612088 0 -0.000350219)
(0.0606954 0 -0.000320962)
(0.0595194 0 -0.000292749)
(0.0576634 0 -0.000265449)
(0.0551047 0 -0.00023889)
(0.0518154 0 -0.000212853)
(0.0477622 0 -0.00018708)
(0.0429075 0 -0.000161269)
(0.0372096 0 -0.00013507)
(0.0306233 0 -0.000108078)
(0.0231014 0 -7.98183e-05)
(0.0145955 0 -4.97265e-05)
(0.00504849 0 -1.70924e-05)
(0.0032156 0 -0.00180757)
(0.00475324 0 -0.00185469)
(0.00769268 0 -0.00190434)
(0.0117739 0 -0.00194841)
(0.0166813 0 -0.00197796)
(0.0220887 0 -0.00198694)
(0.0276915 0 -0.00197274)
(0.03323 0 -0.00193535)
(0.0385045 0 -0.00187748)
(0.0433723 0 -0.0018033)
(0.0477377 0 -0.00171735)
(0.051541 0 -0.0016238)
(0.0547482 0 -0.00152606)
(0.0573417 0 -0.00142672)
(0.0593145 0 -0.00132813)
(0.0606625 0 -0.00123162)
(0.061382 0 -0.00113787)
(0.0614677 0 -0.00104722)
(0.060911 0 -0.000959852)
(0.0596988 0 -0.00087559)
(0.0578123 0 -0.000794033)
(0.0552281 0 -0.000714671)
(0.0519171 0 -0.000636846)
(0.0478455 0 -0.000559789)
(0.042975 0 -0.000482596)
(0.0372631 0 -0.000404224)
(0.0306644 0 -0.000323464)
(0.0231308 0 -0.000238896)
(0.0146134 0 -0.000148836)
(0.00505458 0 -5.11592e-05)
(0.00627305 0 -0.00299759)
(0.00789835 0 -0.00308849)
(0.0108677 0 -0.00317859)
(0.0149173 0 -0.00325282)
(0.0197301 0 -0.00329922)
(0.0249813 0 -0.00330967)
(0.0303767 0 -0.00328137)
(0.0356697 0 -0.00321458)
(0.0406809 0 -0.00311456)
(0.0452845 0 -0.00298857)
(0.0493972 0 -0.00284419)
(0.0529669 0 -0.00268815)
(0.0559632 0 -0.00252581)
(0.0583698 0 -0.00236105)
(0.0601807 0 -0.00219804)
(0.0613894 0 -0.00203865)
(0.0619901 0 -0.00188388)
(0.0619747 0 -0.00173413)
(0.061333 0 -0.00158982)
(0.0600493 0 -0.00145062)
(0.0581029 0 -0.0013158)
(0.0554682 0 -0.00118455)
(0.0521146 0 -0.00105577)
(0.0480069 0 -0.000928198)
(0.0431053 0 -0.000800331)
(0.0373664 0 -0.000670451)
(0.0307433 0 -0.000536561)
(0.0231872 0 -0.000396314)
(0.014648 0 -0.000246925)
(0.0050664 0 -8.48767e-05)
(0.0107484 0 -0.00421947)
(0.0125177 0 -0.00434909)
(0.0155418 0 -0.00447292)
(0.0195458 0 -0.00456995)
(0.0242149 0 -0.00462568)
(0.0292269 0 -0.0046294)
(0.0343094 0 -0.00458001)
(0.0392325 0 -0.00447696)
(0.0438527 0 -0.00432956)
(0.0480681 0 -0.0041485)
(0.0518118 0 -0.00394421)
(0.0550417 0 -0.00372568)
(0.0577318 0 -0.00349982)
(0.0598665 0 -0.00327066)
(0.0614432 0 -0.00304523)
(0.0624501 0 -0.00282519)
(0.0628782 0 -0.00261157)
(0.0627159 0 -0.0024046)
(0.0619506 0 -0.00220527)
(0.0605629 0 -0.00201294)
(0.0585289 0 -0.00182646)
(0.0558204 0 -0.0016448)
(0.0524046 0 -0.00146643)
(0.048244 0 -0.00128958)
(0.0432969 0 -0.00111219)
(0.0375182 0 -0.000931885)
(0.0308595 0 -0.000745909)
(0.0232703 0 -0.000551013)
(0.0146988 0 -0.000343342)
(0.0050838 0 -0.000118023)
(0.0166206 0 -0.00549516)
(0.0185649 0 -0.00565097)
(0.0216422 0 -0.0057945)
(0.0255685 0 -0.00590172)
(0.0300365 0 -0.0059562)
(0.0347143 0 -0.00594092)
(0.0393512 0 -0.00585489)
(0.0437775 0 -0.00570569)
(0.047888 0 -0.00550463)
(0.0516049 0 -0.00526523)
(0.0548789 0 -0.00500022)
(0.0576786 0 -0.00472033)
(0.0599819 0 -0.00443372)
(0.0617797 0 -0.00414585)
(0.0630605 0 -0.00386131)
(0.063811 0 -0.00358371)
(0.0640196 0 -0.00331431)
(0.0636693 0 -0.00305251)
(0.0627461 0 -0.00280086)
(0.0612257 0 -0.00255791)
(0.0590793 0 -0.00232191)
(0.0562761 0 -0.00209189)
(0.0527801 0 -0.00186574)
(0.0485512 0 -0.00164132)
(0.0435454 0 -0.00141598)
(0.0377152 0 -0.00118674)
(0.0310103 0 -0.000950105)
(0.0233782 0 -0.000701977)
(0.0147648 0 -0.000437462)
(0.0051064 0 -0.000150385)
(0.0238404 0 -0.00680887)
(0.0259601 0 -0.00698283)
(0.0290613 0 -0.00713538)
(0.0328565 0 -0.00724024)
(0.037025 0 -0.0072767)
(0.0412413 0 -0.00722664)
(0.0453139 0 -0.00709089)
(0.0491396 0 -0.00688552)
(0.0526393 0 -0.00662482)
(0.055765 0 -0.00632452)
(0.0584866 0 -0.00599896)
(0.060783 0 -0.00565987)
(0.0626359 0 -0.00531536)
(0.0640384 0 -0.00497276)
(0.0649708 0 -0.00463388)
(0.065421 0 -0.00430318)
(0.0653734 0 -0.00398265)
(0.0648064 0 -0.00367189)
(0.0636973 0 -0.00337156)
(0.0620201 0 -0.00308127)
(0.0597398 0 -0.00279825)
(0.0568238 0 -0.00252246)
(0.0532321 0 -0.00225081)
(0.0489215 0 -0.00198096)
(0.0438452 0 -0.00170964)
(0.037953 0 -0.00143331)
(0.0311924 0 -0.00114782)
(0.0235085 0 -0.000848238)
(0.0148446 0 -0.000528693)
(0.00513372 0 -0.000181761)
(0.0322804 0 -0.00812656)
(0.0345594 0 -0.0083206)
(0.0376412 0 -0.00847934)
(0.0412386 0 -0.00857318)
(0.0449709 0 -0.00857127)
(0.0486105 0 -0.00846944)
(0.0520291 0 -0.00827498)
(0.0551572 0 -0.00800576)
(0.0579591 0 -0.00768079)
(0.060418 0 -0.00731817)
(0.0625221 0 -0.00693326)
(0.0642595 0 -0.00653834)
(0.0656091 0 -0.00613959)
(0.0665654 0 -0.00574398)
(0.0671116 0 -0.00535518)
(0.0672294 0 -0.00497641)
(0.066897 0 -0.00460938)
(0.0660875 0 -0.00425403)
(0.0647722 0 -0.0039099)
(0.0629212 0 -0.0035767)
(0.0604936 0 -0.00325178)
(0.0574503 0 -0.00293351)
(0.0537498 0 -0.00261894)
(0.0493462 0 -0.00230624)
(0.0441897 0 -0.00199124)
(0.0382264 0 -0.00167002)
(0.0314019 0 -0.00133781)
(0.0236584 0 -0.000988893)
(0.0149365 0 -0.000616477)
(0.00516517 0 -0.00021196)
(0.0417547 0 -0.00943332)
(0.0441744 0 -0.0096524)
(0.0471855 0 -0.00981389)
(0.0504766 0 -0.00988155)
(0.0536664 0 -0.00982593)
(0.0566266 0 -0.00965655)
(0.0592874 0 -0.00939019)
(0.0616322 0 -0.00904974)
(0.0636676 0 -0.00865754)
(0.0654061 0 -0.00823319)
(0.0668496 0 -0.00779189)
(0.0679786 0 -0.00734304)
(0.0687913 0 -0.00689499)
(0.0692768 0 -0.00645249)
(0.0694144 0 -0.00601935)
(0.0691797 0 -0.00559809)
(0.0685454 0 -0.00519023)
(0.0674783 0 -0.0047952)
(0.0659413 0 -0.00441175)
(0.0639011 0 -0.0040398)
(0.0613138 0 -0.00367686)
(0.0581373 0 -0.00332056)
(0.0543216 0 -0.00296769)
(0.0498161 0 -0.00261517)
(0.0445714 0 -0.00225907)
(0.0385294 0 -0.00189544)
(0.031634 0 -0.00151894)
(0.0238248 0 -0.00112312)
(0.0150384 0 -0.000700309)
(0.00520007 0 -0.000240808)
(0.0520892 0 -0.0107498)
(0.0546271 0 -0.0109886)
(0.0574921 0 -0.0111362)
(0.0603392 0 -0.0111503)
(0.0628783 0 -0.0110199)
(0.0650471 0 -0.0107656)
(0.0668574 0 -0.0104159)
(0.0683512 0 -0.00999925)
(0.0695739 0 -0.00953964)
(0.0705644 0 -0.00905703)
(0.0713114 0 -0.00856292)
(0.0718153 0 -0.0080662)
(0.0720819 0 -0.00757468)
(0.0720894 0 -0.00709209)
(0.0718112 0 -0.00662116)
(0.0712165 0 -0.0061636)
(0.0702712 0 -0.00572032)
(0.0689391 0 -0.00529152)
(0.067174 0 -0.00487426)
(0.0649388 0 -0.00446847)
(0.0621845 0 -0.00407161)
(0.0588628 0 -0.00368068)
(0.0549254 0 -0.00329305)
(0.0503183 0 -0.00290473)
(0.044983 0 -0.00251165)
(0.0388556 0 -0.00210835)
(0.031884 0 -0.00169026)
(0.024004 0 -0.00125022)
(0.0151483 0 -0.000779749)
(0.00523767 0 -0.000268155)
(0.0631738 0 -0.0121072)
(0.0657792 0 -0.0123437)
(0.0683733 0 -0.0124405)
(0.070617 0 -0.0123629)
(0.0723465 0 -0.0121266)
(0.0736057 0 -0.011769)
(0.0744889 0 -0.0113281)
(0.0750896 0 -0.0108347)
(0.0754799 0 -0.0103114)
(0.0757095 0 -0.00977661)
(0.075766 0 -0.00923782)
(0.0756665 0 -0.00870286)
(0.0753982 0 -0.00817651)
(0.0749359 0 -0.00766164)
(0.0742472 0 -0.00716007)
(0.073295 0 -0.00667279)
(0.0720392 0 -0.00620007)
(0.0704367 0 -0.00574145)
(0.0684403 0 -0.00529508)
(0.0660045 0 -0.00485974)
(0.0630807 0 -0.00443367)
(0.0596158 0 -0.00401283)
(0.0555539 0 -0.00359416)
(0.0508341 0 -0.00317281)
(0.0454061 0 -0.00274627)
(0.0391984 0 -0.0023077)
(0.0321468 0 -0.00185093)
(0.0241924 0 -0.00136959)
(0.0152638 0 -0.000854421)
(0.00527718 0 -0.000293868)
(0.0749379 0 -0.0135112)
(0.0774952 0 -0.0137078)
(0.0796001 0 -0.013697)
(0.0810113 0 -0.0134779)
(0.0817571 0 -0.0131049)
(0.0820032 0 -0.0126315)
(0.0819152 0 -0.0120995)
(0.0816186 0 -0.0115366)
(0.0811942 0 -0.01096)
(0.0806834 0 -0.0103827)
(0.0800952 0 -0.00981134)
(0.0794236 0 -0.00924832)
(0.0786492 0 -0.00869666)
(0.0777408 0 -0.00815811)
(0.07666 0 -0.00763362)
(0.0753641 0 -0.00712358)
(0.0738076 0 -0.00662777)
(0.0719423 0 -0.00614542)
(0.0697179 0 -0.00567495)
(0.0670838 0 -0.00521469)
(0.0639872 0 -0.00476248)
(0.0603734 0 -0.00431503)
(0.0561881 0 -0.00386957)
(0.0513619 0 -0.00342009)
(0.0458307 0 -0.00296194)
(0.0395408 0 -0.00249139)
(0.032417 0 -0.00200032)
(0.0243865 0 -0.00148075)
(0.0153828 0 -0.000924019)
(0.0053177 0 -0.000317836)
(0.0872736 0 -0.0149262)
(0.0895515 0 -0.0150278)
(0.0908269 0 -0.0148355)
(0.0911257 0 -0.014425)
(0.0907305 0 -0.0138975)
(0.0899084 0 -0.0133118)
(0.088861 0 -0.0127026)
(0.0877145 0 -0.0120873)
(0.0865418 0 -0.011475)
(0.0853558 0 -0.0108709)
(0.0841794 0 -0.0102796)
(0.0829882 0 -0.00969999)
(0.0817531 0 -0.00913326)
(0.0804359 0 -0.00858006)
(0.078993 0 -0.00804068)
(0.0773769 0 -0.00751501)
(0.0755375 0 -0.00700257)
(0.073423 0 -0.0065024)
(0.07098 0 -0.006013)
(0.0681541 0 -0.00553256)
(0.0648896 0 -0.00505873)
(0.0611291 0 -0.00458849)
(0.0568143 0 -0.00411853)
(0.0518832 0 -0.00364449)
(0.046257 0 -0.00315934)
(0.0398742 0 -0.00265879)
(0.0326789 0 -0.00213676)
(0.0245828 0 -0.00158334)
(0.0155028 0 -0.000988295)
(0.00535822 0 -0.000339959)
(0.0999412 0 -0.0162799)
(0.101505 0 -0.0161914)
(0.101497 0 -0.0157316)
(0.100428 0 -0.015104)
(0.0988223 0 -0.0144367)
(0.0969739 0 -0.013769)
(0.09506 0 -0.0131141)
(0.0931709 0 -0.012474)
(0.0913487 0 -0.0118489)
(0.0895953 0 -0.0112381)
(0.0879151 0 -0.0106414)
(0.0862759 0 -0.0100576)
(0.0846398 0 -0.00948636)
(0.0829628 0 -0.00892768)
(0.081197 0 -0.00838138)
(0.0792918 0 -0.00784716)
(0.077194 0 -0.00732441)
(0.0748493 0 -0.00681216)
(0.0722018 0 -0.00630898)
(0.0691947 0 -0.00581302)
(0.0657701 0 -0.00532195)
(0.0618683 0 -0.00483282)
(0.0574285 0 -0.00434217)
(0.0523887 0 -0.00384583)
(0.0466694 0 -0.00333751)
(0.0402005 0 -0.00281072)
(0.0329262 0 -0.00225991)
(0.024767 0 -0.00167611)
(0.0156217 0 -0.00104706)
(0.00539743 0 -0.000360143)
(0.112338 0 -0.0174333)
(0.112459 0 -0.016976)
(0.110753 0 -0.0161924)
(0.10825 0 -0.0153959)
(0.105558 0 -0.0146609)
(0.102872 0 -0.013975)
(0.100284 0 -0.0133236)
(0.0978299 0 -0.0126956)
(0.0955094 0 -0.0120843)
(0.0933211 0 -0.0114865)
(0.0912435 0 -0.0109006)
(0.0892411 0 -0.0103253)
(0.0872721 0 -0.00976)
(0.0852903 0 -0.00920464)
(0.0832457 0 -0.00865905)
(0.0810861 0 -0.00812296)
(0.0787575 0 -0.00759587)
(0.0762039 0 -0.0070769)
(0.0733685 0 -0.00656476)
(0.0701929 0 -0.0060577)
(0.0666177 0 -0.00555345)
(0.0625816 0 -0.00504915)
(0.0580217 0 -0.00454129)
(0.0528726 0 -0.00402557)
(0.0470608 0 -0.00349649)
(0.0405132 0 -0.00294702)
(0.0331636 0 -0.00237075)
(0.0249362 0 -0.00175901)
(0.0157266 0 -0.00109952)
(0.00543336 0 -0.000378274)
(0.122612 0 -0.0179385)
(0.120731 0 -0.0169125)
(0.117471 0 -0.0159696)
(0.113999 0 -0.0152081)
(0.110639 0 -0.014546)
(0.107455 0 -0.0139316)
(0.10446 0 -0.0133406)
(0.10165 0 -0.012762)
(0.0990081 0 -0.0121909)
(0.096517 0 -0.0116255)
(0.0941493 0 -0.0110652)
(0.0918696 0 -0.0105101)
(0.0896368 0 -0.00996043)
(0.0874053 0 -0.00941645)
(0.0851262 0 -0.00887848)
(0.0827478 0 -0.00834659)
(0.0802164 0 -0.00782053)
(0.0774763 0 -0.00729968)
(0.0744703 0 -0.00678296)
(0.0711397 0 -0.0062688)
(0.0674243 0 -0.00575507)
(0.0632619 0 -0.00523902)
(0.0585884 0 -0.0047172)
(0.0533367 0 -0.00418529)
(0.0474347 0 -0.00363789)
(0.0408089 0 -0.00306838)
(0.0333867 0 -0.00246963)
(0.0250874 0 -0.00183261)
(0.0158156 0 -0.00114571)
(0.00546522 0 -0.000394342)
(0.00483271 0 -4.67841e-05)
(0.0139118 0 -0.000133959)
(0.021913 0 -0.000208819)
(0.0289549 0 -0.000271557)
(0.0351421 0 -0.000322323)
(0.040582 0 -0.000361621)
(0.0453767 0 -0.00038965)
(0.049614 0 -0.000406509)
(0.0533596 0 -0.000412179)
(0.0566937 0 -0.000407242)
(0.0596963 0 -0.000391898)
(0.0624335 0 -0.000366544)
(0.0649695 0 -0.00033181)
(0.0673673 0 -0.000288648)
(0.0696882 0 -0.000238428)
(0.071993 0 -0.000183064)
(0.0743415 0 -0.000125163)
(0.0767931 0 -6.81829e-05)
(0.0794065 0 -1.66209e-05)
(0.0822388 0 2.37879e-05)
(0.0853441 0 4.58409e-05)
(0.0887826 0 4.07554e-05)
(0.0925974 0 -2.19678e-06)
(0.096801 0 -9.50449e-05)
(0.101416 0 -0.000255073)
(0.106434 0 -0.000504079)
(0.111797 0 -0.000875009)
(0.117351 0 -0.00143041)
(0.122759 0 -0.0023111)
(0.127776 0 -0.00393048)
(0.0048884 0 -5.16952e-05)
(0.0140757 0 -0.00014826)
(0.0221815 0 -0.00023185)
(0.029328 0 -0.000302988)
(0.0356287 0 -0.000362212)
(0.0411915 0 -0.000410159)
(0.0461163 0 -0.000447297)
(0.0504907 0 -0.000474003)
(0.0543881 0 -0.000490557)
(0.0578905 0 -0.000497921)
(0.0610725 0 -0.000496629)
(0.0640017 0 -0.000487488)
(0.0667426 0 -0.000471598)
(0.0693576 0 -0.000450442)
(0.071907 0 -0.000425991)
(0.0744496 0 -0.000400833)
(0.0770425 0 -0.000378319)
(0.079741 0 -0.000362733)
(0.0825982 0 -0.000359478)
(0.0856639 0 -0.000375301)
(0.0889839 0 -0.00041858)
(0.0926005 0 -0.000499808)
(0.0965236 0 -0.000629413)
(0.100758 0 -0.000822864)
(0.105285 0 -0.00109994)
(0.110045 0 -0.00148677)
(0.114918 0 -0.00202164)
(0.119701 0 -0.00276634)
(0.124078 0 -0.00381365)
(0.127689 0 -0.00530712)
(0.00494309 0 -5.68212e-05)
(0.014237 0 -0.000163204)
(0.0224462 0 -0.00025597)
(0.0296974 0 -0.000336002)
(0.0361095 0 -0.000404187)
(0.0417916 0 -0.000461381)
(0.0468429 0 -0.000508326)
(0.051352 0 -0.000545704)
(0.0553979 0 -0.000574225)
(0.0590593 0 -0.00059491)
(0.0624095 0 -0.000608734)
(0.0655163 0 -0.000616901)
(0.0684434 0 -0.00062094)
(0.0712515 0 -0.000622798)
(0.0739988 0 -0.000624946)
(0.0767407 0 -0.0006305)
(0.0795297 0 -0.000643356)
(0.0824154 0 -0.000668341)
(0.0854425 0 -0.000711376)
(0.0886506 0 -0.000779645)
(0.092071 0 -0.000881783)
(0.0957232 0 -0.00102799)
(0.0996047 0 -0.00122992)
(0.103695 0 -0.00150251)
(0.107945 0 -0.00186449)
(0.112265 0 -0.00233914)
(0.116522 0 -0.00295936)
(0.120501 0 -0.00376158)
(0.12393 0 -0.00478769)
(0.12656 0 -0.00611875)
(0.00499586 0 -6.21269e-05)
(0.014393 0 -0.000178691)
(0.0227032 0 -0.000281013)
(0.030057 0 -0.000370356)
(0.0365772 0 -0.000447944)
(0.0423741 0 -0.000514895)
(0.0475471 0 -0.000572229)
(0.0521855 0 -0.000620923)
(0.0563704 0 -0.000662008)
(0.060179 0 -0.000696703)
(0.0636833 0 -0.000726323)
(0.0669499 0 -0.000752422)
(0.0700408 0 -0.000776892)
(0.0730147 0 -0.000802048)
(0.0759262 0 -0.000830736)
(0.0788265 0 -0.000866434)
(0.0817626 0 -0.000913358)
(0.0847766 0 -0.000976585)
(0.0879046 0 -0.00106218)
(0.0911747 0 -0.00117728)
(0.094604 0 -0.00133022)
(0.098195 0 -0.00153049)
(0.101931 0 -0.00178897)
(0.105776 0 -0.00211876)
(0.109667 0 -0.00253638)
(0.113507 0 -0.00305924)
(0.117153 0 -0.00370534)
(0.12042 0 -0.00449049)
(0.123131 0 -0.00543888)
(0.125104 0 -0.0065891)
(0.00504578 0 -6.75677e-05)
(0.0145412 0 -0.00019459)
(0.0229482 0 -0.000306767)
(0.0304009 0 -0.000405752)
(0.0370247 0 -0.000493102)
(0.0429308 0 -0.000570216)
(0.0482191 0 -0.000638385)
(0.0529792 0 -0.000698862)
(0.0572928 0 -0.000752951)
(0.0612357 0 -0.000802095)
(0.0648782 0 -0.000847889)
(0.0682854 0 -0.000892174)
(0.071517 0 -0.000937123)
(0.0746285 0 -0.000985317)
(0.0776707 0 -0.00103984)
(0.0806899 0 -0.00110436)
(0.0837269 0 -0.00118318)
(0.0868163 0 -0.00128137)
(0.0899855 0 -0.0014048)
(0.0932521 0 -0.00156016)
(0.0966222 0 -0.00175519)
(0.100085 0 -0.00199804)
(0.103614 0 -0.00229787)
(0.107173 0 -0.00266684)
(0.110687 0 -0.00311488)
(0.11405 0 -0.00365123)
(0.117146 0 -0.00428395)
(0.119847 0 -0.00502242)
(0.122029 0 -0.00587628)
(0.123573 0 -0.00685174)
(0.00509192 0 -7.30902e-05)
(0.0146788 0 -0.000210747)
(0.0231771 0 -0.00033298)
(0.0307233 0 -0.000441835)
(0.0374448 0 -0.000539202)
(0.0434537 0 -0.000626762)
(0.0488497 0 -0.000706064)
(0.0537224 0 -0.000778613)
(0.058153 0 -0.00084595)
(0.0622161 0 -0.000909729)
(0.0659803 0 -0.000971768)
(0.0695081 0 -0.00103413)
(0.0728568 0 -0.00109917)
(0.0760782 0 -0.00116964)
(0.0792191 0 -0.00124872)
(0.0823206 0 -0.00134012)
(0.085417 0 -0.00144802)
(0.0885362 0 -0.0015772)
(0.0916978 0 -0.00173319)
(0.0949112 0 -0.00192174)
(0.0981761 0 -0.00215022)
(0.101471 0 -0.00242489)
(0.10477 0 -0.00275358)
(0.108026 0 -0.00314375)
(0.111159 0 -0.0035994)
(0.114091 0 -0.00412639)
(0.116732 0 -0.00472852)
(0.118991 0 -0.00540818)
(0.120784 0 -0.00616473)
(0.12204 0 -0.00698919)
(0.00513337 0 -7.86315e-05)
(0.0148033 0 -0.000226978)
(0.0233856 0 -0.000359355)
(0.0310187 0 -0.000478195)
(0.0378309 0 -0.000585712)
(0.0439347 0 -0.00068386)
(0.0494296 0 -0.000774432)
(0.0544046 0 -0.000859157)
(0.05894 0 -0.000939775)
(0.0631087 0 -0.00101812)
(0.0669772 0 -0.00109617)
(0.0706057 0 -0.00117614)
(0.0740485 0 -0.00126052)
(0.0773534 0 -0.00135206)
(0.0805632 0 -0.00145393)
(0.0837143 0 -0.0015698)
(0.0868345 0 -0.00170351)
(0.0899459 0 -0.0018593)
(0.0930625 0 -0.00204251)
(0.0961918 0 -0.00225836)
(0.0993245 0 -0.00251208)
(0.102431 0 -0.0028083)
(0.105483 0 -0.00315237)
(0.108433 0 -0.00354775)
(0.111221 0 -0.00399743)
(0.113783 0 -0.00450347)
(0.116053 0 -0.0050661)
(0.117967 0 -0.00568318)
(0.11947 0 -0.00634859)
(0.120523 0 -0.00704877)
(0.00516926 0 -8.41199e-05)
(0.0149121 0 -0.000243075)
(0.0235699 0 -0.000385553)
(0.0312819 0 -0.000514363)
(0.0381767 0 -0.000632027)
(0.0443666 0 -0.000740756)
(0.0499507 0 -0.000842566)
(0.055017 0 -0.000939377)
(0.0596442 0 -0.0010331)
(0.0639034 0 -0.00112569)
(0.0678587 0 -0.00121923)
(0.0715684 0 -0.00131601)
(0.0750835 0 -0.00141862)
(0.0784472 0 -0.00152968)
(0.0816991 0 -0.00165214)