/*--------------------------------*- C++ -*----------------------------------*\
| =========                 |                                                 |
| \\      /  F ield         | OpenFOAM: The Open Source CFD Toolbox           |
|  \\    /   O peration     | Version:  5.x                                   |
|   \\  /    A nd           | Web:      www.OpenFOAM.org                      |
|    \\/     M anipulation  |                                                 |
\*---------------------------------------------------------------------------*/
FoamFile
{
    version     2.0;
    format      ascii;
    class       pointVectorField;
    location    "3.3";
    object      pointDisplacement;
}
// * * * * * * * * * * * * * * * * * * * * * * * * * * * * * * * * * * * * * //

dimensions      [0 1 0 0 0 0 0];

internalField   nonuniform List<vector> 
5828
(
(0 0 0)
(0.00827091 0 0)
(0.015719 0 0)
(0.0221435 0 0)
(0.0276188 0 0)
(0.0322185 0 0)
(0.0360103 0 0)
(0.0390563 0 0)
(0.0414126 0 0)
(0.0431294 0 0)
(0.0442516 0 0)
(0.0448193 0 0)
(0.0448683 0 0)
(0.0444308 0 0)
(0.0435359 0 0)
(0.0422113 0 0)
(0.0404831 0 0)
(0.0383783 0 0)
(0.0359253 0 0)
(0.0331561 0 0)
(0.0301078 0 0)
(0.0268249 0 0)
(0.0233612 0 0)
(0.0197829 0 0)
(0.0161713 0 0)
(0.0126266 0 0)
(0.00927143 0 0)
(0.0062581 0 0)
(0.00377989 0 0)
(0.00210718 0 0)
(0 0 0)
(0 0 0)
(0.0082766 0 -3.48914e-06)
(0.0157307 0 -6.32474e-06)
(0.0221612 0 -8.17291e-06)
(0.0276428 0 -8.85737e-06)
(0.0322492 0 -8.21342e-06)
(0.0360485 0 -6.06838e-06)
(0.0391029 0 -2.22983e-06)
(0.0414686 0 3.52296e-06)
(0.0431961 0 1.14459e-05)
(0.0443305 0 2.18352e-05)
(0.0449121 0 3.503e-05)
(0.0449771 0 5.14135e-05)
(0.0445577 0 7.14134e-05)
(0.0436836 0 9.54986e-05)
(0.0423824 0 0.00012417)
(0.0406808 0 0.000157946)
(0.0386055 0 0.000197354)
(0.0361855 0 0.000242908)
(0.0334526 0 0.000295064)
(0.0304439 0 0.000354185)
(0.0272036 0 0.000420485)
(0.0237853 0 0.000493969)
(0.0202548 0 0.000574349)
(0.0166929 0 0.000660931)
(0.0131995 0 0.000752462)
(0.00989768 0 0.000846906)
(0.00694046 0 0.000941154)
(0.00452301 0 0.00103049)
(0.00291568 0 0.00110667)
(0.00109836 0 0.0012108)
(0 0 0)
(0.00829445 0 -7.05931e-06)
(0.0157661 0 -1.28123e-05)
(0.0222142 0 -1.65968e-05)
(0.0277143 0 -1.8067e-05)
(0.0323407 0 -1.68999e-05)
(0.0361621 0 -1.27569e-05)
(0.0392412 0 -5.26058e-06)
(0.0416349 0 6.02195e-06)
(0.0433943 0 2.15924e-05)
(0.0445651 0 4.2032e-05)
(0.0451883 0 6.80064e-05)
(0.0453008 0 0.000100267)
(0.0449357 0 0.000139651)
(0.0441233 0 0.000187081)
(0.042892 0 0.00024354)
(0.0412693 0 0.000310041)
(0.0392825 0 0.000387619)
(0.0369606 0 0.000477281)
(0.034336 0 0.000579921)
(0.0314454 0 0.000696237)
(0.0283326 0 0.000826633)
(0.0250501 0 0.000971083)
(0.0216622 0 0.00112897)
(0.0182486 0 0.00129883)
(0.0149077 0 0.00147806)
(0.0117623 0 0.0016623)
(0.00896578 0 0.0018446)
(0.00671276 0 0.00201396)
(0.0052675 0 0.00215215)
(0.00356153 0 0.00229289)
(0 0 0)
(0.00832358 0 -1.07861e-05)
(0.0158238 0 -1.96154e-05)
(0.0223009 0 -2.55081e-05)
(0.0278314 0 -2.79626e-05)
(0.0324908 0 -2.65102e-05)
(0.0363487 0 -2.06594e-05)
(0.0394686 0 -9.86231e-06)
(0.0419086 0 6.50868e-06)
(0.0437206 0 2.91811e-05)
(0.0449514 0 5.89992e-05)
(0.0456433 0 9.69295e-05)
(0.0458342 0 0.00014406)
(0.0455585 0 0.000201607)
(0.0448477 0 0.000270911)
(0.043732 0 0.000353401)
(0.0422395 0 0.000450534)
(0.0403985 0 0.000563808)
(0.0382388 0 0.00069469)
(0.0357931 0 0.000844469)
(0.0330982 0 0.00101413)
(0.0301966 0 0.00120421)
(0.0271394 0 0.00141459)
(0.0239883 0 0.00164423)
(0.0208197 0 0.00189083)
(0.0177289 0 0.00215033)
(0.0148368 0 0.00241602)
(0.012294 0 0.00267697)
(0.0102881 0 0.00291574)
(0.00906933 0 0.0031047)
(0.00749038 0 0.0032748)
(0 0 0)
(0.00836385 0 -1.4741e-05)
(0.0159037 0 -2.68787e-05)
(0.0224208 0 -3.51315e-05)
(0.0279935 0 -3.88613e-05)
(0.0326984 0 -3.74726e-05)
(0.0366065 0 -3.03403e-05)
(0.0397829 0 -1.67672e-05)
(0.0422866 0 4.04384e-06)
(0.0441712 0 3.3016e-05)
(0.0454846 0 7.12241e-05)
(0.0462709 0 0.000119899)
(0.0465698 0 0.000180421)
(0.046417 0 0.000254327)
(0.0458459 0 0.000343334)
(0.044889 0 0.000449271)
(0.0435761 0 0.000573948)
(0.0419358 0 0.000719254)
(0.0399998 0 0.000887081)
(0.0378013 0 0.00107905)
(0.0353771 0 0.00129636)
(0.0327688 0 0.0015396)
(0.0300249 0 0.00180848)
(0.0272035 0 0.00210142)
(0.0243752 0 0.00241518)
(0.0216284 0 0.00274421)
(0.0190805 0 0.00307988)
(0.0168796 0 0.00340813)
(0.0152032 0 0.00370669)
(0.014285 0 0.0039406)
(0.0128711 0 0.00416818)
(0 0 0)
(0.00841481 0 -1.89912e-05)
(0.0160048 0 -3.47381e-05)
(0.0225726 0 -4.56774e-05)
(0.0281985 0 -5.10599e-05)
(0.032961 0 -5.01874e-05)
(0.0369326 0 -4.23257e-05)
(0.04018 0 -2.66553e-05)
(0.0427641 0 -2.24248e-06)
(0.04474 0 3.19917e-05)
(0.0461574 0 7.73109e-05)
(0.0470621 0 0.000135167)
(0.0474966 0 0.000207169)
(0.0474983 0 0.000295098)
(0.0471017 0 0.000400988)
(0.0463422 0 0.000526944)
(0.0452525 0 0.000675026)
(0.0438633 0 0.000847505)
(0.0422074 0 0.00104662)
(0.0403192 0 0.0012742)
(0.0382358 0 0.00153162)
(0.035998 0 0.00181942)
(0.0336519 0 0.00213706)
(0.0312511 0 0.00248236)
(0.0288595 0 0.00285102)
(0.0265546 0 0.0032362)
(0.0244413 0 0.00362745)
(0.0226669 0 0.0040081)
(0.0214045 0 0.0043525)
(0.0208687 0 0.00462023)
(0.0197207 0 0.00491405)
(0 0 0)
(0.00847588 0 -2.35973e-05)
(0.016126 0 -4.33156e-05)
(0.0227545 0 -5.73347e-05)
(0.0284442 0 -6.48245e-05)
(0.0332757 0 -6.50132e-05)
(0.037323 0 -5.70871e-05)
(0.0406551 0 -4.01347e-05)
(0.043335 0 -1.31249e-05)
(0.0454197 0 2.51253e-05)
(0.0469604 0 7.60187e-05)
(0.0480053 0 0.000141183)
(0.0485994 0 0.000222366)
(0.0487823 0 0.000321473)
(0.0485916 0 0.00044075)
(0.0480636 0 0.000582479)
(0.047235 0 0.00074896)
(0.0461409 0 0.000942733)
(0.0448149 0 0.0011662)
(0.0432929 0 0.00142135)
(0.0416126 0 0.0017096)
(0.0398149 0 0.00203146)
(0.0379438 0 0.00238605)
(0.0360487 0 0.00277064)
(0.0341867 0 0.00317991)
(0.0324244 0 0.00360554)
(0.0308431 0 0.00403489)
(0.0295792 0 0.0044485)
(0.028808 0 0.00481692)
(0.0287255 0 0.00509499)
(0.0279483 0 0.0054221)
(0 0 0)
(0.00854637 0 -2.86111e-05)
(0.0162658 0 -5.27161e-05)
(0.0229644 0 -7.02659e-05)
(0.0287278 0 -8.0384e-05)
(0.0336387 0 -8.22583e-05)
(0.0377731 0 -7.50293e-05)
(0.0412021 0 -5.77255e-05)
(0.0439918 0 -2.92614e-05)
(0.0462001 0 1.16044e-05)
(0.04788 0 6.63307e-05)
(0.0490836 0 0.000136622)
(0.0498574 0 0.000224309)
(0.0502447 0 0.000331365)
(0.0502871 0 0.000460089)
(0.050023 0 0.000612878)
(0.0494918 0 0.000792196)
(0.048732 0 0.00100062)
(0.0477798 0 0.00124059)
(0.0466731 0 0.00151415)
(0.0454513 0 0.00182272)
(0.0441559 0 0.00216667)
(0.0428293 0 0.00254485)
(0.0415165 0 0.00295396)
(0.0402669 0 0.00338775)
(0.0391361 0 0.00383605)
(0.0381849 0 0.00428402)
(0.0375153 0 0.00470893)
(0.0372916 0 0.00507582)
(0.0376989 0 0.00533521)
(0.0373245 0 0.00563365)
(0 0 0)
(0.00862545 0 -3.40744e-05)
(0.0164227 0 -6.30242e-05)
(0.0232 0 -8.46016e-05)
(0.0290461 0 -9.79222e-05)
(0.0340458 0 -0.00010217)
(0.0382773 0 -9.64794e-05)
(0.041814 0 -7.98461e-05)
(0.0447241 0 -5.11682e-05)
(0.0470668 0 -9.21421e-06)
(0.0488996 0 4.74496e-05)
(0.0502781 0 0.000120503)
(0.0512509 0 0.000211793)
(0.0518643 0 0.000323315)
(0.0521633 0 0.000457316)
(0.0521902 0 0.000616157)
(0.0519869 0 0.000802265)
(0.0515947 0 0.00101811)
(0.0510533 0 0.00126603)
(0.050403 0 0.00154805)
(0.0496864 0 0.00186546)
(0.0489465 0 0.00221842)
(0.0482249 0 0.0026055)
(0.0475624 0 0.00302299)
(0.0469992 0 0.00346386)
(0.0465769 0 0.00391657)
(0.0463394 0 0.00436404)
(0.0463404 0 0.00478037)
(0.0467084 0 0.00512552)
(0.047608 0 0.00534647)
(0.0475742 0 0.00558845)
(0 0 0)
(0.00871218 0 -4.00176e-05)
(0.0165947 0 -7.43011e-05)
(0.0234584 0 -0.000100437)
(0.0293952 0 -0.000117573)
(0.0344925 0 -0.000124929)
(0.0388289 0 -0.000121642)
(0.0424802 0 -0.000106743)
(0.0455184 0 -7.9179e-05)
(0.0480067 0 -3.77836e-05)
(0.050006 0 1.87954e-05)
(0.0515735 0 9.21778e-05)
(0.0527615 0 0.000184093)
(0.0536187 0 0.000296437)
(0.0541925 0 0.000431329)
(0.0545299 0 0.000590936)
(0.0546764 0 0.000777467)
(0.0546764 0 0.000993124)
(0.0545735 0 0.00123998)
(0.0544097 0 0.00151989)
(0.0542318 0 0.00183394)
(0.0540877 0 0.00218194)
(0.0540189 0 0.00256219)
(0.0540626 0 0.00297075)
(0.0542501 0 0.00340041)
(0.0546064 0 0.0038392)
(0.0551509 0 0.00426872)
(0.0558944 0 0.00466164)
(0.0569073 0 0.00497517)
(0.0582978 0 0.00515387)
(0.0585423 0 0.00536109)
(0 0 0)
(0.00880549 0 -4.64588e-05)
(0.0167799 0 -8.65837e-05)
(0.0237364 0 -0.000117829)
(0.029771 0 -0.000139414)
(0.0349715 0 -0.000150613)
(0.039417 0 -0.000150593)
(0.0431889 0 -0.000138517)
(0.0463646 0 -0.000113469)
(0.0490097 0 -7.43514e-05)
(0.0511865 0 -1.99331e-05)
(0.0529532 0 5.12987e-05)
(0.0543651 0 0.000140895)
(0.055475 0 0.000250457)
(0.0563344 0 0.000381836)
(0.0569941 0 0.000536902)
(0.0575032 0 0.000717471)
(0.05791 0 0.000925285)
(0.0582621 0 0.00116187)
(0.0586054 0 0.00142871)
(0.0589882 0 0.00172676)
(0.0594629 0 0.00205537)
(0.0600767 0 0.00241227)
(0.0608653 0 0.00279358)
(0.0618527 0 0.00319255)
(0.0630489 0 0.00359812)
(0.0644445 0 0.00399295)
(0.0660097 0 0.00435124)
(0.0677369 0 0.00463016)
(0.0696439 0 0.00477191)
(0.0702035 0 0.00497839)
(0 0 0)
(0.00890423 0 -5.34036e-05)
(0.0169757 0 -9.98829e-05)
(0.0240304 0 -0.000136794)
(0.0301677 0 -0.000163473)
(0.0354741 0 -0.000179229)
(0.0400327 0 -0.000183364)
(0.0439332 0 -0.000175253)
(0.0472547 0 -0.000154112)
(0.0500638 0 -0.000118964)
(0.0524229 0 -6.86906e-05)
(0.0543924 0 -2.02561e-06)
(0.0560312 0 8.23438e-05)
(0.057397 0 0.00018566)
(0.058546 0 0.000309307)
(0.0595314 0 0.000454739)
(0.0604057 0 0.000623232)
(0.0612214 0 0.000815886)
(0.0620312 0 0.00103348)
(0.0628881 0 0.00127659)
(0.0638405 0 0.00154578)
(0.0649392 0 0.00184032)
(0.0662412 0 0.00215717)
(0.0677879 0 0.00249207)
(0.0695999 0 0.00283938)
(0.0716779 0 0.00319031)
(0.0739909 0 0.00353128)
(0.0764667 0 0.00384179)
(0.0790047 0 0.00408267)
(0.081496 0 0.004192)
(0.0825228 0 0.00440758)
(0 0 0)
(0.00900715 0 -6.08445e-05)
(0.0171796 0 -0.000114184)
(0.024337 0 -0.000157308)
(0.030579 0 -0.000189693)
(0.0359927 0 -0.000210732)
(0.0406702 0 -0.000219943)
(0.0447057 0 -0.000216916)
(0.0481778 0 -0.000201018)
(0.0511527 0 -0.000171409)
(0.0536933 0 -0.000127127)
(0.0558657 0 -6.73098e-05)
(0.0577337 0 8.98933e-06)
(0.0593571 0 0.000102686)
(0.0607945 0 0.000214644)
(0.0621017 0 0.000345716)
(0.0633348 0 0.000496508)
(0.0645502 0 0.000667329)
(0.065805 0 0.000858081)
(0.0671574 0 0.00106817)
(0.0686617 0 0.00129682)
(0.0703675 0 0.00154303)
(0.0723358 0 0.00180332)
(0.0746183 0 0.00207252)
(0.0772388 0 0.00234569)
(0.0801992 0 0.00261704)
(0.0834613 0 0.00287898)
(0.0869286 0 0.00312064)
(0.0903984 0 0.00331393)
(0.0935859 0 0.00339275)
(0.095362 0 0.00360385)
(0 0 0)
(0.00911296 0 -6.87611e-05)
(0.017389 0 -0.000129444)
(0.0246507 0 -0.000179302)
(0.0309985 0 -0.000217952)
(0.0365222 0 -0.000244997)
(0.0413227 0 -0.000260194)
(0.0454964 0 -0.000263286)
(0.0491199 0 -0.000253849)
(0.052258 0 -0.000231214)
(0.0549789 0 -0.000194718)
(0.0573553 0 -0.000143919)
(0.059452 0 -7.82655e-05)
(0.0613295 0 2.73907e-06)
(0.063048 0 9.94314e-05)
(0.0646663 0 0.000211964)
(0.0662433 0 0.000340158)
(0.0678381 0 0.000483403)
(0.0695108 0 0.000640549)
(0.0713218 0 0.000809807)
(0.073331 0 0.000988694)
(0.0755957 0 0.00117454)
(0.0781747 0 0.00136339)
(0.0811225 0 0.001549)
(0.0844752 0 0.00172547)
(0.0882445 0 0.00188884)
(0.0924044 0 0.00203759)
(0.096864 0 0.00217447)
(0.101354 0 0.00229687)
(0.105395 0 0.00234817)
(0.108498 0 0.00256631)
(0 0 0)
(0.00922041 0 -7.71205e-05)
(0.0176011 0 -0.000145599)
(0.0249666 0 -0.000202672)
(0.0314203 0 -0.000248131)
(0.0370574 0 -0.00028186)
(0.041983 0 -0.000303867)
(0.0462944 0 -0.000314031)
(0.0500662 0 -0.000312122)
(0.0533652 0 -0.000297789)
(0.0562665 0 -0.00027077)
(0.0588443 0 -0.000230942)
(0.0611629 0 -0.000178153)
(0.0632846 0 -0.000112414)
(0.0652709 0 -3.39752e-05)
(0.0671823 0 5.6592e-05)
(0.0690794 0 0.000158269)
(0.0710227 0 0.000269465)
(0.0730733 0 0.00038788)
(0.0752925 0 0.000510378)
(0.0777413 0 0.000632872)
(0.080482 0 0.00075042)
(0.0835723 0 0.000857226)
(0.0870637 0 0.000945392)
(0.0909974 0 0.00100639)
(0.0953945 0 0.0010338)
(0.100247 0 0.00102616)
(0.105489 0 0.000995387)
(0.11087 0 0.000979982)
(0.115842 0 0.000991516)
(0.121713 0 0.0013704)
(0 0 0)
(0.00932905 0 -8.59407e-05)
(0.017815 0 -0.00016268)
(0.0252834 0 -0.000227465)
(0.0318432 0 -0.000280328)
(0.0375965 0 -0.000321449)
(0.0426488 0 -0.000351072)
(0.0470961 0 -0.000369248)
(0.051014 0 -0.000375923)
(0.0544732 0 -0.000371166)
(0.0575527 0 -0.000355145)
(0.0603258 0 -0.000328009)
(0.0628575 0 -0.000290053)
(0.0652111 0 -0.000241806)
(0.0674487 0 -0.000184125)
(0.0696313 0 -0.000118298)
(0.0718195 0 -4.61775e-05)
(0.0740737 0 2.96766e-05)
(0.0764538 0 0.000105834)
(0.0790195 0 0.000177824)
(0.0818291 0 0.000239963)
(0.0849418 0 0.000285249)
(0.0884127 0 0.000305192)
(0.0922809 0 0.000289615)
(0.0965741 0 0.000226119)
(0.101308 0 0.000100339)
(0.106466 0 -0.000103439)
(0.111968 0 -0.000402326)
(0.117584 0 -0.00081583)
(0.122911 0 -0.00144823)
(0.134934 0 8.95796e-05)
(0 0 0)
(0.00827091 0 0)
(0.015719 0 0)
(0.0221435 0 0)
(0.0276188 0 0)
(0.0322185 0 0)
(0.0360103 0 0)
(0.0390563 0 0)
(0.0414126 0 0)
(0.0431294 0 0)
(0.0442516 0 0)
(0.0448193 0 0)
(0.0448683 0 0)
(0.0444308 0 0)
(0.0435359 0 0)
(0.0422113 0 0)
(0.0404831 0 0)
(0.0383783 0 0)
(0.0359253 0 0)
(0.0331561 0 0)
(0.0301078 0 0)
(0.0268249 0 0)
(0.0233612 0 0)
(0.0197829 0 0)
(0.0161713 0 0)
(0.0126266 0 0)
(0.00927143 0 0)
(0.0062581 0 0)
(0.00377989 0 0)
(0.00210718 0 0)
(0 0 0)
(0 0 0)
(0.0082766 0 -3.48914e-06)
(0.0157307 0 -6.32474e-06)
(0.0221612 0 -8.17291e-06)
(0.0276428 0 -8.85737e-06)
(0.0322492 0 -8.21342e-06)
(0.0360485 0 -6.06838e-06)
(0.0391029 0 -2.22983e-06)
(0.0414686 0 3.52296e-06)
(0.0431961 0 1.14459e-05)
(0.0443305 0 2.18352e-05)
(0.0449121 0 3.503e-05)
(0.0449771 0 5.14135e-05)
(0.0445577 0 7.14134e-05)
(0.0436836 0 9.54986e-05)
(0.0423824 0 0.00012417)
(0.0406808 0 0.000157946)
(0.0386055 0 0.000197354)
(0.0361855 0 0.000242908)
(0.0334526 0 0.000295064)
(0.0304439 0 0.000354185)
(0.0272036 0 0.000420485)
(0.0237853 0 0.000493969)
(0.0202548 0 0.000574349)
(0.0166929 0 0.000660931)
(0.0131995 0 0.000752462)
(0.00989768 0 0.000846906)
(0.00694046 0 0.000941154)
(0.00452301 0 0.00103049)
(0.00291568 0 0.00110667)
(0.00109836 0 0.0012108)
(0 0 0)
(0.00829445 0 -7.05931e-06)
(0.0157661 0 -1.28123e-05)
(0.0222142 0 -1.65968e-05)
(0.0277143 0 -1.8067e-05)
(0.0323407 0 -1.68999e-05)
(0.0361621 0 -1.27569e-05)
(0.0392412 0 -5.26058e-06)
(0.0416349 0 6.02195e-06)
(0.0433943 0 2.15924e-05)
(0.0445651 0 4.2032e-05)
(0.0451883 0 6.80064e-05)
(0.0453008 0 0.000100267)
(0.0449357 0 0.000139651)
(0.0441233 0 0.000187081)
(0.042892 0 0.00024354)
(0.0412693 0 0.000310041)
(0.0392825 0 0.000387619)
(0.0369606 0 0.000477281)
(0.034336 0 0.000579921)
(0.0314454 0 0.000696237)
(0.0283326 0 0.000826633)
(0.0250501 0 0.000971083)
(0.0216622 0 0.00112897)
(0.0182486 0 0.00129883)
(0.0149077 0 0.00147806)
(0.0117623 0 0.0016623)
(0.00896578 0 0.0018446)
(0.00671276 0 0.00201396)
(0.0052675 0 0.00215215)
(0.00356153 0 0.00229289)
(0 0 0)
(0.00832358 0 -1.07861e-05)
(0.0158238 0 -1.96154e-05)
(0.0223009 0 -2.55081e-05)
(0.0278314 0 -2.79626e-05)
(0.0324908 0 -2.65102e-05)
(0.0363487 0 -2.06594e-05)
(0.0394686 0 -9.86231e-06)
(0.0419086 0 6.50868e-06)
(0.0437206 0 2.91811e-05)
(0.0449514 0 5.89992e-05)
(0.0456433 0 9.69295e-05)
(0.0458342 0 0.00014406)
(0.0455585 0 0.000201607)
(0.0448477 0 0.000270911)
(0.043732 0 0.000353401)
(0.0422395 0 0.000450534)
(0.0403985 0 0.000563808)
(0.0382388 0 0.00069469)
(0.0357931 0 0.000844469)
(0.0330982 0 0.00101413)
(0.0301966 0 0.00120421)
(0.0271394 0 0.00141459)
(0.0239883 0 0.00164423)
(0.0208197 0 0.00189083)
(0.0177289 0 0.00215033)
(0.0148368 0 0.00241602)
(0.012294 0 0.00267697)
(0.0102881 0 0.00291574)
(0.00906933 0 0.0031047)
(0.00749038 0 0.0032748)
(0 0 0)
(0.00836385 0 -1.4741e-05)
(0.0159037 0 -2.68787e-05)
(0.0224208 0 -3.51315e-05)
(0.0279935 0 -3.88613e-05)
(0.0326984 0 -3.74726e-05)
(0.0366065 0 -3.03403e-05)
(0.0397829 0 -1.67672e-05)
(0.0422866 0 4.04384e-06)
(0.0441712 0 3.3016e-05)
(0.0454846 0 7.12241e-05)
(0.0462709 0 0.000119899)
(0.0465698 0 0.000180421)
(0.046417 0 0.000254327)
(0.0458459 0 0.000343334)
(0.044889 0 0.000449271)
(0.0435761 0 0.000573948)
(0.0419358 0 0.000719254)
(0.0399998 0 0.000887081)
(0.0378013 0 0.00107905)
(0.0353771 0 0.00129636)
(0.0327688 0 0.0015396)
(0.0300249 0 0.00180848)
(0.0272035 0 0.00210142)
(0.0243752 0 0.00241518)
(0.0216284 0 0.00274421)
(0.0190805 0 0.00307988)
(0.0168796 0 0.00340813)
(0.0152032 0 0.00370669)
(0.014285 0 0.0039406)
(0.0128711 0 0.00416818)
(0 0 0)
(0.00841481 0 -1.89912e-05)
(0.0160048 0 -3.47381e-05)
(0.0225726 0 -4.56774e-05)
(0.0281985 0 -5.10599e-05)
(0.032961 0 -5.01874e-05)
(0.0369326 0 -4.23257e-05)
(0.04018 0 -2.66553e-05)
(0.0427641 0 -2.24248e-06)
(0.04474 0 3.19917e-05)
(0.0461574 0 7.73109e-05)
(0.0470621 0 0.000135167)
(0.0474966 0 0.000207169)
(0.0474983 0 0.000295098)
(0.0471017 0 0.000400988)
(0.0463422 0 0.000526944)
(0.0452525 0 0.000675026)
(0.0438633 0 0.000847505)
(0.0422074 0 0.00104662)
(0.0403192 0 0.0012742)
(0.0382358 0 0.00153162)
(0.035998 0 0.00181942)
(0.0336519 0 0.00213706)
(0.0312511 0 0.00248236)
(0.0288595 0 0.00285102)
(0.0265546 0 0.0032362)
(0.0244413 0 0.00362745)
(0.0226669 0 0.0040081)
(0.0214045 0 0.0043525)
(0.0208687 0 0.00462023)
(0.0197207 0 0.00491405)
(0 0 0)
(0.00847588 0 -2.35973e-05)
(0.016126 0 -4.33156e-05)
(0.0227545 0 -5.73347e-05)
(0.0284442 0 -6.48245e-05)
(0.0332757 0 -6.50132e-05)
(0.037323 0 -5.70871e-05)
(0.0406551 0 -4.01347e-05)
(0.043335 0 -1.31249e-05)
(0.0454197 0 2.51253e-05)
(0.0469604 0 7.60187e-05)
(0.0480053 0 0.000141183)
(0.0485994 0 0.000222366)
(0.0487823 0 0.000321473)
(0.0485916 0 0.00044075)
(0.0480636 0 0.000582479)
(0.047235 0 0.00074896)
(0.0461409 0 0.000942733)
(0.0448149 0 0.0011662)
(0.0432929 0 0.00142135)
(0.0416126 0 0.0017096)
(0.0398149 0 0.00203146)
(0.0379438 0 0.00238605)
(0.0360487 0 0.00277064)
(0.0341867 0 0.00317991)
(0.0324244 0 0.00360554)
(0.0308431 0 0.00403489)
(0.0295792 0 0.0044485)
(0.028808 0 0.00481692)
(0.0287255 0 0.00509499)
(0.0279483 0 0.0054221)
(0 0 0)
(0.00854637 0 -2.86111e-05)
(0.0162658 0 -5.27161e-05)
(0.0229644 0 -7.02659e-05)
(0.0287278 0 -8.0384e-05)
(0.0336387 0 -8.22583e-05)
(0.0377731 0 -7.50293e-05)
(0.0412021 0 -5.77255e-05)
(0.0439918 0 -2.92614e-05)
(0.0462001 0 1.16044e-05)
(0.04788 0 6.63307e-05)
(0.0490836 0 0.000136622)
(0.0498574 0 0.000224309)
(0.0502447 0 0.000331365)
(0.0502871 0 0.000460089)
(0.050023 0 0.000612878)
(0.0494918 0 0.000792196)
(0.048732 0 0.00100062)
(0.0477798 0 0.00124059)
(0.0466731 0 0.00151415)
(0.0454513 0 0.00182272)
(0.0441559 0 0.00216667)
(0.0428293 0 0.00254485)
(0.0415165 0 0.00295396)
(0.0402669 0 0.00338775)
(0.0391361 0 0.00383605)
(0.0381849 0 0.00428402)
(0.0375153 0 0.00470893)
(0.0372916 0 0.00507582)
(0.0376989 0 0.00533521)
(0.0373245 0 0.00563365)
(0 0 0)
(0.00862545 0 -3.40744e-05)
(0.0164227 0 -6.30242e-05)
(0.0232 0 -8.46016e-05)
(0.0290461 0 -9.79222e-05)
(0.0340458 0 -0.00010217)
(0.0382773 0 -9.64794e-05)
(0.041814 0 -7.98461e-05)
(0.0447241 0 -5.11682e-05)
(0.0470668 0 -9.21421e-06)
(0.0488996 0 4.74496e-05)
(0.0502781 0 0.000120503)
(0.0512509 0 0.000211793)
(0.0518643 0 0.000323315)
(0.0521633 0 0.000457316)
(0.0521902 0 0.000616157)
(0.0519869 0 0.000802265)
(0.0515947 0 0.00101811)
(0.0510533 0 0.00126603)
(0.050403 0 0.00154805)
(0.0496864 0 0.00186546)
(0.0489465 0 0.00221842)
(0.0482249 0 0.0026055)
(0.0475624 0 0.00302299)
(0.0469992 0 0.00346386)
(0.0465769 0 0.00391657)
(0.0463394 0 0.00436404)
(0.0463404 0 0.00478037)
(0.0467084 0 0.00512552)
(0.047608 0 0.00534647)
(0.0475742 0 0.00558845)
(0 0 0)
(0.00871218 0 -4.00176e-05)
(0.0165947 0 -7.43011e-05)
(0.0234584 0 -0.000100437)
(0.0293952 0 -0.000117573)
(0.0344925 0 -0.000124929)
(0.0388289 0 -0.000121642)
(0.0424802 0 -0.000106743)
(0.0455184 0 -7.9179e-05)
(0.0480067 0 -3.77836e-05)
(0.050006 0 1.87954e-05)
(0.0515735 0 9.21778e-05)
(0.0527615 0 0.000184093)
(0.0536187 0 0.000296437)
(0.0541925 0 0.000431329)
(0.0545299 0 0.000590936)
(0.0546764 0 0.000777467)
(0.0546764 0 0.000993124)
(0.0545735 0 0.00123998)
(0.0544097 0 0.00151989)
(0.0542318 0 0.00183394)
(0.0540877 0 0.00218194)
(0.0540189 0 0.00256219)
(0.0540626 0 0.00297075)
(0.0542501 0 0.00340041)
(0.0546064 0 0.0038392)
(0.0551509 0 0.00426872)
(0.0558944 0 0.00466164)
(0.0569073 0 0.00497517)
(0.0582978 0 0.00515387)
(0.0585423 0 0.00536109)
(0 0 0)
(0.00880549 0 -4.64588e-05)
(0.0167799 0 -8.65837e-05)
(0.0237364 0 -0.000117829)
(0.029771 0 -0.000139414)
(0.0349715 0 -0.000150613)
(0.039417 0 -0.000150593)
(0.0431889 0 -0.000138517)
(0.0463646 0 -0.000113469)
(0.0490097 0 -7.43514e-05)
(0.0511865 0 -1.99331e-05)
(0.0529532 0 5.12987e-05)
(0.0543651 0 0.000140895)
(0.055475 0 0.000250457)
(0.0563344 0 0.000381836)
(0.0569941 0 0.000536902)
(0.0575032 0 0.000717471)
(0.05791 0 0.000925285)
(0.0582621 0 0.00116187)
(0.0586054 0 0.00142871)
(0.0589882 0 0.00172676)
(0.0594629 0 0.00205537)
(0.0600767 0 0.00241227)
(0.0608653 0 0.00279358)
(0.0618527 0 0.00319255)
(0.0630489 0 0.00359812)
(0.0644445 0 0.00399295)
(0.0660097 0 0.00435124)
(0.0677369 0 0.00463016)
(0.0696439 0 0.00477191)
(0.0702035 0 0.00497839)
(0 0 0)
(0.00890423 0 -5.34036e-05)
(0.0169757 0 -9.98829e-05)
(0.0240304 0 -0.000136794)
(0.0301677 0 -0.000163473)
(0.0354741 0 -0.000179229)
(0.0400327 0 -0.000183364)
(0.0439332 0 -0.000175253)
(0.0472547 0 -0.000154112)
(0.0500638 0 -0.000118964)
(0.0524229 0 -6.86906e-05)
(0.0543924 0 -2.02561e-06)
(0.0560312 0 8.23438e-05)
(0.057397 0 0.00018566)
(0.058546 0 0.000309307)
(0.0595314 0 0.000454739)
(0.0604057 0 0.000623232)
(0.0612214 0 0.000815886)
(0.0620312 0 0.00103348)
(0.0628881 0 0.00127659)
(0.0638405 0 0.00154578)
(0.0649392 0 0.00184032)
(0.0662412 0 0.00215717)
(0.0677879 0 0.00249207)
(0.0695999 0 0.00283938)
(0.0716779 0 0.00319031)
(0.0739909 0 0.00353128)
(0.0764667 0 0.00384179)
(0.0790047 0 0.00408267)
(0.081496 0 0.004192)
(0.0825228 0 0.00440758)
(0 0 0)
(0.00900715 0 -6.08445e-05)
(0.0171796 0 -0.000114184)
(0.024337 0 -0.000157308)
(0.030579 0 -0.000189693)
(0.0359927 0 -0.000210732)
(0.0406702 0 -0.000219943)
(0.0447057 0 -0.000216916)
(0.0481778 0 -0.000201018)
(0.0511527 0 -0.000171409)
(0.0536933 0 -0.000127127)
(0.0558657 0 -6.73098e-05)
(0.0577337 0 8.98933e-06)
(0.0593571 0 0.000102686)
(0.0607945 0 0.000214644)
(0.0621017 0 0.000345716)
(0.0633348 0 0.000496508)
(0.0645502 0 0.000667329)
(0.065805 0 0.000858081)
(0.0671574 0 0.00106817)
(0.0686617 0 0.00129682)
(0.0703675 0 0.00154303)
(0.0723358 0 0.00180332)
(0.0746183 0 0.00207252)
(0.0772388 0 0.00234569)
(0.0801992 0 0.00261704)
(0.0834613 0 0.00287898)
(0.0869286 0 0.00312064)
(0.0903984 0 0.00331393)
(0.0935859 0 0.00339275)
(0.095362 0 0.00360385)
(0 0 0)
(0.00911296 0 -6.87611e-05)
(0.017389 0 -0.000129444)
(0.0246507 0 -0.000179302)
(0.0309985 0 -0.000217952)
(0.0365222 0 -0.000244997)
(0.0413227 0 -0.000260194)
(0.0454964 0 -0.000263286)
(0.0491199 0 -0.000253849)
(0.052258 0 -0.000231214)
(0.0549789 0 -0.000194718)
(0.0573553 0 -0.000143919)
(0.059452 0 -7.82655e-05)
(0.0613295 0 2.73907e-06)
(0.063048 0 9.94314e-05)
(0.0646663 0 0.000211964)
(0.0662433 0 0.000340158)
(0.0678381 0 0.000483403)
(0.0695108 0 0.000640549)
(0.0713218 0 0.000809807)
(0.073331 0 0.000988694)
(0.0755957 0 0.00117454)
(0.0781747 0 0.00136339)
(0.0811225 0 0.001549)
(0.0844752 0 0.00172547)
(0.0882445 0 0.00188884)
(0.0924044 0 0.00203759)
(0.096864 0 0.00217447)
(0.101354 0 0.00229687)
(0.105395 0 0.00234817)
(0.108498 0 0.00256631)
(0 0 0)
(0.00922041 0 -7.71205e-05)
(0.0176011 0 -0.000145599)
(0.0249666 0 -0.000202672)
(0.0314203 0 -0.000248131)
(0.0370574 0 -0.00028186)
(0.041983 0 -0.000303867)
(0.0462944 0 -0.000314031)
(0.0500662 0 -0.000312122)
(0.0533652 0 -0.000297789)
(0.0562665 0 -0.00027077)
(0.0588443 0 -0.000230942)
(0.0611629 0 -0.000178153)
(0.0632846 0 -0.000112414)
(0.0652709 0 -3.39752e-05)
(0.0671823 0 5.6592e-05)
(0.0690794 0 0.000158269)
(0.0710227 0 0.000269465)
(0.0730733 0 0.00038788)
(0.0752925 0 0.000510378)
(0.0777413 0 0.000632872)
(0.080482 0 0.00075042)
(0.0835723 0 0.000857226)
(0.0870637 0 0.000945392)
(0.0909974 0 0.00100639)
(0.0953945 0 0.0010338)
(0.100247 0 0.00102616)
(0.105489 0 0.000995387)
(0.11087 0 0.000979982)
(0.115842 0 0.000991516)
(0.121713 0 0.0013704)
(0 0 0)
(0.00932905 0 -8.59407e-05)
(0.017815 0 -0.00016268)
(0.0252834 0 -0.000227465)
(0.0318432 0 -0.000280328)
(0.0375965 0 -0.000321449)
(0.0426488 0 -0.000351072)
(0.0470961 0 -0.000369248)
(0.051014 0 -0.000375923)
(0.0544732 0 -0.000371166)
(0.0575527 0 -0.000355145)
(0.0603258 0 -0.000328009)
(0.0628575 0 -0.000290053)
(0.0652111 0 -0.000241806)
(0.0674487 0 -0.000184125)
(0.0696313 0 -0.000118298)
(0.0718195 0 -4.61775e-05)
(0.0740737 0 2.96766e-05)
(0.0764538 0 0.000105834)
(0.0790195 0 0.000177824)
(0.0818291 0 0.000239963)
(0.0849418 0 0.000285249)
(0.0884127 0 0.000305192)
(0.0922809 0 0.000289615)
(0.0965741 0 0.000226119)
(0.101308 0 0.000100339)
(0.106466 0 -0.000103439)
(0.111968 0 -0.000402326)
(0.117584 0 -0.00081583)
(0.122911 0 -0.00144823)
(0.134934 0 8.95796e-05)
(0 0 0)
(0.00237151 0 0)
(0.00460512 0 0)
(0.00812766 0 0)
(0.0126573 0 0)
(0.0178781 0 0)
(0.023474 0 0)
(0.0291578 0 0)
(0.034692 0 0)
(0.0398963 0 0)
(0.0446439 0 0)
(0.048852 0 0)
(0.0524705 0 0)
(0.0554723 0 0)
(0.0578444 0 0)
(0.0595818 0 0)
(0.0606815 0 0)
(0.0611402 0 0)
(0.0609523 0 0)
(0.0601079 0 0)
(0.0585923 0 0)
(0.0563854 0 0)
(0.0534618 0 0)
(0.049791 0 0)
(0.0453376 0 0)
(0.0400618 0 0)
(0.0339203 0 0)
(0.0268669 0 0)
(0.0188537 0 0)
(0.00982875 0 0)
(0 0 0)
(0.00103497 0 -0.00123295)
(0.0031773 0 -0.00122232)
(0.0054124 0 -0.00125357)
(0.00892823 0 -0.00128425)
(0.0134399 0 -0.00130869)
(0.0186288 0 -0.00132167)
(0.0241794 0 -0.00132016)
(0.0298068 0 -0.0013032)
(0.0352774 0 -0.00127166)
(0.0404155 0 -0.0012278)
(0.0450979 0 -0.00117451)
(0.0492444 0 -0.00111471)
(0.0528065 0 -0.00105094)
(0.0557578 0 -0.000985198)
(0.0580857 0 -0.000919163)
(0.0597847 0 -0.000854055)
(0.0608516 0 -0.000790558)
(0.0612825 0 -0.000729018)
(0.061071 0 -0.000669605)
(0.0602068 0 -0.000612327)
(0.0586745 0 -0.000556991)
(0.0564535 0 -0.000503295)
(0.0535181 0 -0.000450848)
(0.0498373 0 -0.000399174)
(0.0453753 0 -0.000347716)
(0.0400921 0 -0.000295823)
(0.033944 0 -0.000242743)
(0.0268845 0 -0.0001876)
(0.0188655 0 -0.000129358)
(0.00983473 0 -6.67505e-05)
(0 0 0)
(0.00341612 0 -0.00239499)
(0.00553404 0 -0.002437)
(0.00780045 0 -0.0025064)
(0.0113096 0 -0.00257095)
(0.015772 0 -0.00261956)
(0.0208666 0 -0.00264346)
(0.0262811 0 -0.00263774)
(0.0317388 0 -0.00260111)
(0.0370185 0 -0.00253562)
(0.0419582 0 -0.00244612)
(0.0464459 0 -0.0023385)
(0.050409 0 -0.00221852)
(0.0538034 0 -0.00209109)
(0.0566046 0 -0.00196003)
(0.0588008 0 -0.0018286)
(0.0603862 0 -0.00169921)
(0.0613557 0 -0.0015731)
(0.0617036 0 -0.00145087)
(0.061422 0 -0.00133284)
(0.0604987 0 -0.00121904)
(0.0589169 0 -0.00110908)
(0.0566543 0 -0.00100233)
(0.0536838 0 -0.000898026)
(0.0499733 0 -0.000795216)
(0.045486 0 -0.000692792)
(0.0401808 0 -0.000589466)
(0.0340132 0 -0.000483743)
(0.026936 0 -0.00037388)
(0.0189001 0 -0.000257819)
(0.00985233 0 -0.000133043)
(0 0 0)
(0.00721433 0 -0.00356457)
(0.0093581 0 -0.00366352)
(0.0117037 0 -0.0037721)
(0.0152149 0 -0.00386844)
(0.0195986 0 -0.00393686)
(0.0245351 0 -0.00396602)
(0.0297207 0 -0.00395021)
(0.0348946 0 -0.00388839)
(0.0398568 0 -0.00378411)
(0.0444697 0 -0.00364551)
(0.0486388 0 -0.00348158)
(0.0523031 0 -0.00330076)
(0.0554248 0 -0.00311006)
(0.0579819 0 -0.00291452)
(0.0599644 0 -0.00271891)
(0.0613654 0 -0.00252693)
(0.0621768 0 -0.00233996)
(0.0623898 0 -0.00215867)
(0.061994 0 -0.00198357)
(0.0609747 0 -0.00181477)
(0.0593121 0 -0.00165156)
(0.0569816 0 -0.001493)
(0.0539539 0 -0.00133799)
(0.0501949 0 -0.00118509)
(0.0456661 0 -0.00103267)
(0.0403251 0 -0.000878811)
(0.0341258 0 -0.000721302)
(0.0270197 0 -0.000557555)
(0.0189563 0 -0.000384512)
(0.00988099 0 -0.000198431)
(0 0 0)
(0.012411 0 -0.00481206)
(0.0146113 0 -0.0049285)
(0.0170639 0 -0.00506666)
(0.0205715 0 -0.00518464)
(0.0248385 0 -0.00526335)
(0.0295457 0 -0.00528812)
(0.0343984 0 -0.00525147)
(0.039166 0 -0.00515461)
(0.0436863 0 -0.00500447)
(0.0478522 0 -0.00481225)
(0.0515899 0 -0.00458981)
(0.0548519 0 -0.00434787)
(0.0576077 0 -0.00409513)
(0.0598394 0 -0.00383774)
(0.061537 0 -0.00358097)
(0.062691 0 -0.00332905)
(0.0632897 0 -0.00308387)
(0.063321 0 -0.00284591)
(0.062771 0 -0.00261596)
(0.0616221 0 -0.00239439)
(0.0598503 0 -0.00217994)
(0.0574277 0 -0.00197139)
(0.0543222 0 -0.00176734)
(0.0504973 0 -0.00156589)
(0.0459122 0 -0.00136489)
(0.0405223 0 -0.00116183)
(0.0342798 0 -0.000953791)
(0.0271342 0 -0.00073739)
(0.0190333 0 -0.000508598)
(0.00992021 0 -0.000262487)
(0 0 0)
(0.0190396 0 -0.00613716)
(0.0212446 0 -0.00623426)
(0.0238043 0 -0.0063907)
(0.0272794 0 -0.00651785)
(0.0313694 0 -0.00659373)
(0.0357527 0 -0.00660025)
(0.0401541 0 -0.00652857)
(0.0443948 0 -0.00638453)
(0.0483605 0 -0.00618048)
(0.0519738 0 -0.00593012)
(0.0551834 0 -0.00564754)
(0.0579563 0 -0.00534514)
(0.0602695 0 -0.0050326)
(0.0621087 0 -0.00471718)
(0.0634622 0 -0.00440369)
(0.0643158 0 -0.00409575)
(0.0646564 0 -0.00379617)
(0.0644675 0 -0.00350553)
(0.0637304 0 -0.00322439)
(0.0624232 0 -0.00295307)
(0.0605175 0 -0.00269)
(0.0579813 0 -0.00243378)
(0.05478 0 -0.00218288)
(0.0508736 0 -0.00193486)
(0.0462187 0 -0.00168713)
(0.0407681 0 -0.00143658)
(0.0344717 0 -0.00117966)
(0.027277 0 -0.000912206)
(0.0191293 0 -0.000629277)
(0.00996917 0 -0.000324802)
(0 0 0)
(0.0270334 0 -0.00748756)
(0.029158 0 -0.00755951)
(0.0318029 0 -0.00772933)
(0.0351973 0 -0.00785697)
(0.0390216 0 -0.00791545)
(0.0429614 0 -0.00788623)
(0.0467986 0 -0.00776578)
(0.0504101 0 -0.00756463)
(0.053724 0 -0.00729958)
(0.0566955 0 -0.00698743)