/*--------------------------------*- C++ -*----------------------------------*\
| =========                 |                                                 |
| \\      /  F ield         | OpenFOAM: The Open Source CFD Toolbox           |
|  \\    /   O peration     | Version:  5.x                                   |
|   \\  /    A nd           | Web:      www.OpenFOAM.org                      |
|    \\/     M anipulation  |                                                 |
\*---------------------------------------------------------------------------*/
FoamFile
{
    version     2.0;
    format      ascii;
    class       volVectorField;
    location    "3.3";
    object      U;
}
// * * * * * * * * * * * * * * * * * * * * * * * * * * * * * * * * * * * * * //

dimensions      [0 1 -1 0 0 0 0];

internalField   nonuniform List<vector> 
2790
(
(9.94627 -7.5615e-21 0.0207394)
(9.87077 0 0.0293942)
(9.76395 0 0.0354071)
(9.63512 0 0.0416161)
(9.48881 3.46184e-20 0.0480621)
(9.3252 -3.4369e-20 0.0546805)
(9.14363 0 0.0615971)
(8.94358 0 0.0689678)
(8.72454 9.55022e-21 0.0769238)
(8.48579 0 0.0855829)
(8.22639 8.317e-20 0.0950636)
(7.94523 -8.57122e-20 0.10549)
(7.64109 0 0.116989)
(7.31267 -1.90429e-19 0.129685)
(6.95864 1.97373e-19 0.143697)
(6.57771 -2.1104e-19 0.159133)
(6.16869 2.19875e-19 0.176069)
(5.73067 -4.73214e-19 0.194533)
(5.26311 4.96304e-19 0.214472)
(4.76613 0 0.235723)
(4.24067 -5.7591e-19 0.257966)
(3.68883 6.11965e-19 0.280666)
(3.11419 1.33748e-18 0.302983)
(2.52221 -2.88598e-18 0.323659)
(1.92062 3.33872e-18 0.340821)
(1.3198 -3.43235e-18 0.351726)
(0.732824 1.87503e-18 0.353061)
(0.188297 -2.04166e-18 0.321107)
(-0.370081 2.4122e-18 -0.151416)
(-0.0704309 0 -0.394833)
(10.0046 2.26342e-20 0.0409267)
(9.98394 -4.60584e-20 0.0615732)
(9.93504 3.12818e-20 0.077254)
(9.86295 -6.43289e-20 0.0937115)
(9.77091 1.32592e-19 0.111114)
(9.65925 -6.73178e-20 0.129277)
(9.52752 1.3965e-19 0.148449)
(9.37531 1.35102e-21 0.168978)
(9.20213 -1.56521e-19 0.191163)
(9.00732 -3.08008e-19 0.215273)
(8.78997 3.15611e-19 0.241574)
(8.54898 0 0.270339)
(8.28316 4.31139e-19 0.301832)
(7.99118 -2.66109e-19 0.336289)
(7.67165 7.53617e-19 0.373907)
(7.32319 1.13289e-20 0.414814)
(6.9445 -8.17685e-19 0.459019)
(6.53444 0 0.506343)
(6.09223 1.15163e-18 0.556337)
(5.6176 -9.64014e-19 0.608195)
(5.11106 0 0.660629)
(4.57422 2.21311e-18 0.711734)
(4.01012 -2.04681e-18 0.758803)
(3.42375 -2.53852e-18 0.798089)
(2.82275 2.54188e-18 0.824406)
(2.21881 -5.90324e-18 0.830247)
(1.63008 -2.278e-20 0.803165)
(1.07567 1.38411e-17 0.71439)
(0.602283 -7.11494e-19 0.465874)
(0.28964 -8.61946e-18 -0.119344)
(10.0018 1.50445e-20 0.0429883)
(9.97828 -1.52959e-20 0.0736687)
(9.93165 0 0.100093)
(9.86452 0 0.127443)
(9.77882 -2.04454e-21 0.156328)
(9.67497 0 0.186681)
(9.55284 0 0.218841)
(9.41215 0 0.253304)
(9.25256 -3.30519e-19 0.290537)
(9.07354 3.00317e-19 0.330981)
(8.87433 3.1408e-19 0.375081)
(8.654 -3.21401e-19 0.423293)
(8.4115 -8.39397e-20 0.476075)
(8.14565 -8.72496e-20 0.533846)
(7.85516 0 0.596964)
(7.53868 -1.3368e-18 0.665697)
(7.19487 3.36451e-18 0.740135)
(6.82242 -3.317e-18 0.820075)
(6.42018 1.29351e-18 0.904897)
(5.98728 0 0.993398)
(5.52337 3.88872e-18 1.08358)
(5.02881 -4.06107e-18 1.17242)
(4.50504 4.08653e-18 1.25552)
(3.95497 -4.59038e-18 1.3267)
(3.3834 0 1.37728)
(2.79759 0 1.39479)
(2.20701 5.71711e-18 1.35973)
(1.61778 -5.42839e-18 1.23799)
(1.01129 -1.38516e-17 0.973734)
(0.540314 1.62702e-17 0.510524)
(10.0001 -1.49791e-20 0.0487817)
(9.97438 -6.11368e-20 0.0908029)
(9.92763 7.76883e-20 0.128997)
(9.86182 7.9406e-21 0.167316)
(9.7779 0 0.207046)
(9.6763 0 0.248543)
(9.5571 0 0.292322)
(9.42021 0 0.339034)
(9.26544 3.62079e-20 0.389328)
(9.09244 0 0.443825)
(8.90069 -7.68631e-20 0.503143)
(8.68952 -6.40562e-19 0.567923)
(8.45818 -8.38917e-21 0.638813)
(8.2058 6.78693e-19 0.71642)
(7.9314 0 0.80129)
(7.63396 -3.68541e-19 0.893874)
(7.31242 -8.80606e-22 0.994425)
(6.96567 0 1.10286)
(6.59256 -2.07363e-19 1.21861)
(6.19201 0 1.34038)
(5.76306 0 1.46586)
(5.30502 3.88218e-18 1.59142)
(4.81761 5.51416e-19 1.71166)
(4.30107 -4.27694e-18 1.81886)
(3.75624 -5.68366e-19 1.90227)
(3.18415 6.06575e-19 1.94703)
(2.58473 -1.04936e-17 1.93264)
(1.95556 -7.65596e-19 1.83037)
(1.25605 1.29847e-17 1.61269)
(0.656537 1.47413e-17 1.23713)
(9.99937 6.00039e-20 0.0560126)
(9.97236 -1.52259e-20 0.107731)
(9.92553 1.08775e-19 0.156219)
(9.86089 -1.34158e-19 0.204531)
(9.77877 2.59522e-19 0.254375)
(9.6794 -2.47347e-19 0.306482)
(9.56292 -2.72556e-19 0.361499)
(9.42935 2.77394e-19 0.420167)
(9.27856 5.75592e-19 0.483244)
(9.11031 -5.86399e-19 0.551467)
(8.92418 6.86885e-19 0.625574)
(8.71964 -6.23039e-19 0.706323)
(8.49614 1.46437e-18 0.794477)
(8.25309 -1.33068e-18 0.890779)
(7.98971 -1.56885e-18 0.995909)
(7.70525 1.78744e-18 1.11045)
(7.39895 -1.87011e-19 1.23479)
(7.06991 -3.50954e-18 1.36903)
(6.71716 3.61117e-18 1.51272)
(6.33957 3.38569e-18 1.66467)
(5.93587 -3.48872e-18 1.82263)
(5.50459 3.23588e-18 1.98286)
(5.04396 -4.30949e-18 2.13971)
(4.55192 -8.13163e-18 2.28505)
(4.02576 1.76206e-17 2.40768)
(3.46169 -9.60296e-18 2.49282)
(2.8536 0 2.5221)
(2.19621 6.54229e-19 2.47301)
(1.44167 0 2.33073)
(0.754803 1.49886e-17 2.04954)
(9.99907 0 0.0638879)
(9.97153 -3.03532e-20 0.124648)
(9.92501 9.29111e-20 0.182946)
(9.86179 -1.25581e-19 0.241171)
(9.78186 0 0.301105)
(9.68517 -2.63831e-19 0.363714)
(9.57191 2.68078e-19 0.429763)
(9.44214 5.54219e-19 0.500074)
(9.29581 -4.93032e-19 0.575506)
(9.13271 -5.84972e-19 0.656908)
(8.9525 5.20808e-19 0.74514)
(8.75471 -1.53761e-19 0.841064)
(8.53891 -3.17705e-19 0.945537)
(8.30462 1.63515e-19 1.05942)
(8.05124 1.69824e-19 1.18353)
(7.77812 -2.99654e-18 1.31857)
(7.48459 2.88194e-18 1.46506)
(7.1699 3.7689e-19 1.62326)
(6.83312 3.13636e-18 1.79293)
(6.47309 -6.0679e-18 1.97314)
(6.08828 2.92434e-18 2.16194)
(5.6766 7.48272e-18 2.35593)
(5.2352 -7.72178e-18 2.54984)
(4.76024 8.63534e-18 2.73602)
(4.24655 7.31688e-20 2.90399)
(3.68731 -8.45553e-18 3.04015)
(3.07302 0 3.12823)
(2.39824 -6.10288e-19 3.14904)
(1.61571 0 3.09073)
(0.861199 -1.51411e-18 2.90219)
(9.99902 0 0.0720109)
(9.97148 -9.08686e-20 0.141459)
(9.92568 1.22729e-19 0.209078)
(9.86419 -2.50991e-19 0.276847)
(9.78677 2.54628e-19 0.346509)
(9.69323 -1.63186e-20 0.419207)
(9.58372 5.35495e-19 0.495839)
(9.45835 -5.43845e-19 0.577321)
(9.31713 -1.39886e-19 0.664607)
(9.15992 0 0.758651)
(8.98638 7.38573e-20 0.860423)
(8.79615 -1.06729e-18 0.970878)
(8.58885 1.39659e-18 1.09096)
(8.36398 -1.60971e-19 1.22163)
(8.12106 -2.66329e-18 1.36382)
(7.85949 2.71318e-18 1.51837)
(7.57856 2.83477e-18 1.68594)
(7.27752 -2.89171e-18 1.86699)
(6.95536 -3.74039e-19 2.06152)
(6.61078 -3.9066e-19 2.26897)
(6.24194 4.0468e-19 2.48788)
(5.84625 0 2.71554)
(5.42 8.27526e-18 2.94754)
(4.95813 -8.10514e-18 3.17731)
(4.45384 0 3.39568)
(3.89854 0 3.59049)
(3.28054 -1.79397e-17 3.74666)
(2.59451 1.84894e-17 3.84574)
(1.79899 0 3.87249)
(0.983824 0 3.76843)
(9.99914 -5.92814e-20 0.0801451)
(9.97197 2.99529e-20 0.157991)
(9.92726 3.06005e-20 0.234463)
(9.86781 0 0.311354)
(9.79326 2.54312e-19 0.390362)
(9.70328 2.61261e-19 0.472757)
(9.59801 -4.9357e-19 0.559548)
(9.47761 -5.42525e-19 0.65173)
(9.3422 6.19793e-19 0.750346)
(9.19166 0 0.85646)
(9.02563 0 0.971136)
(8.84387 0 1.09542)
(8.64601 -1.22993e-18 1.23036)
(8.43157 1.24963e-18 1.377)
(8.20008 0 1.53642)
(7.95096 -3.30681e-19 1.70958)
(7.68347 -3.40139e-19 1.89734)
(7.39676 2.83111e-18 2.10039)
(7.08966 -8.35078e-18 2.31905)
(6.76059 6.31525e-18 2.55319)
(6.40742 0 2.80204)
(6.02707 -6.39933e-18 3.0638)
(5.61515 5.72539e-18 3.33522)
(5.16565 -6.85916e-18 3.61114)
(4.67058 7.07474e-18 3.884)
(4.12006 0 4.14314)
(3.50081 -1.47014e-17 4.37423)
(2.80579 3.26511e-17 4.55805)
(2.00211 -1.77518e-17 4.67169)
(1.12538 -6.12047e-19 4.64891)
(9.99938 5.92175e-20 0.0881374)
(9.97284 -1.7992e-19 0.17408)
(9.92958 1.21382e-19 0.258968)
(9.87247 2.47881e-19 0.344542)
(9.80107 -2.51045e-19 0.432486)
(9.71502 -5.14693e-19 0.524147)
(9.61447 -5.27836e-20 0.620612)
(9.49966 1.06881e-18 0.722946)
(9.37076 -5.43812e-19 0.832298)
(9.22758 0 0.949853)
(9.06986 0 1.07675)
(8.89739 0 1.21411)
(8.70987 1.49316e-19 1.36307)
(8.50692 -1.52986e-19 1.52483)
(8.28803 0 1.70056)
(8.0526 3.24405e-19 1.89141)
(7.79986 2.99864e-18 2.09846)
(7.52887 -5.4416e-18 2.32268)
(7.23831 2.77826e-18 2.56482)
(6.92624 -3.60647e-19 2.82526)
(6.59022 0 3.10401)
(6.22682 -6.08502e-18 3.40039)
(5.83102 1.24709e-17 3.71254)
(5.396 -6.40585e-18 4.03702)
(4.91269 -8.23141e-19 4.3681)
(4.36977 0 4.6968)
(3.75228 4.46136e-19 5.00966)
(3.04893 -1.47832e-17 5.28648)
(2.2369 1.64245e-17 5.49436)
(1.29117 5.65901e-19 5.5622)
(9.99969 5.89545e-20 0.0958819)
(9.97402 -5.95196e-20 0.189588)
(9.93248 -2.42317e-19 0.282462)
(9.87797 2.45126e-19 0.376275)
(9.80999 4.85402e-19 0.472706)
(9.72826 -1.01726e-18 0.57314)
(9.63297 5.48849e-19 0.678724)
(9.52432 0 0.790614)
(9.40246 0 0.910083)
(9.26722 1.17415e-18 1.03841)
(9.1185 -1.1195e-18 1.17678)
(8.95611 -1.15447e-18 1.32637)
(8.77986 -1.33891e-18 1.48845)
(8.58943 2.39164e-18 1.66432)
(8.3843 -2.46875e-18 1.85534)
(8.16393 2.49994e-18 2.06284)
(7.92752 0 2.28814)
(7.67403 5.28102e-18 2.53256)
(7.40205 -5.34988e-18 2.79736)
(7.10944 -5.52113e-18 3.08354)
(6.79335 -4.69876e-20 3.39191)
(6.45012 5.72907e-18 3.72309)
(6.07432 0 4.07694)
(5.65835 0 4.452)
(5.19202 7.83756e-19 4.84487)
(4.66221 -1.28244e-17 5.24883)
(4.05157 2.61183e-17 5.65182)
(3.3417 -2.81628e-17 6.03359)
(2.5206 -2.35574e-19 6.35025)
(1.4915 1.62981e-17 6.5303)
(10.0001 0 0.103302)
(9.97541 5.91735e-20 0.2044)
(9.93583 0 0.304827)
(9.88417 0 0.406425)
(9.8199 1.55194e-20 0.510847)
(9.74292 0 0.619493)
(9.65333 -1.60629e-20 0.733605)
(9.55126 0 0.854452)
(9.43685 -1.00199e-18 0.983396)
(9.3101 1.01253e-18 1.12175)
(9.17105 0 1.27075)
(9.0196 0 1.43167)
(8.85553 0 1.60585)
(8.67857 2.50506e-18 1.79476)
(8.48833 -2.23437e-18 1.9999)
(8.28432 -3.03477e-19 2.22281)
(8.0658 2.49979e-18 2.4651)
(7.83168 -2.52574e-18 2.72845)
(7.58057 0 3.01466)
(7.31042 0 3.32554)
(7.01808 0 3.66277)
(6.69957 0 4.02827)
(6.34936 0 4.42391)
(5.95928 -1.1314e-17 4.85072)
(5.51807 1.14953e-17 5.30835)
(5.01046 -3.61842e-19 5.79353)
(4.41582 0 6.29717)
(3.70526 0 6.80095)
(2.87591 1.32461e-17 7.25022)
(1.74152 -2.86406e-17 7.57655)
(10.0005 0 0.110342)
(9.97698 5.90517e-20 0.218426)
(9.93953 -5.96608e-20 0.32596)
(9.89095 -2.42817e-19 0.434855)
(9.83076 2.45342e-19 0.546723)
(9.75886 5.00923e-19 0.662996)
(9.67527 -5.06202e-19 0.785044)
(9.58009 -1.60863e-20 0.914236)
(9.47356 -1.11986e-18 1.05195)
(9.35591 1.06491e-18 1.19952)
(9.22722 6.77336e-20 1.35823)
(9.0874 0 1.52947)
(8.93631 0 1.7147)
(8.77372 0 1.91546)
(8.59941 -2.34348e-18 2.13342)
(8.41299 2.79487e-19 2.37032)
(8.21382 2.40095e-18 2.62806)
(8.00097 -4.60814e-18 2.90869)
(7.77311 5.25743e-18 3.21454)
(7.52849 0 3.54829)
(7.26417 3.15509e-19 3.91271)
(6.97597 5.48396e-18 4.31103)
(6.65838 -5.20336e-18 4.74719)
(6.30323 0 5.2253)
(5.89857 1.06188e-17 5.74905)
(5.42705 -1.04138e-17 6.32047)
(4.86425 0 6.93657)
(4.16682 0 7.58572)
(3.33479 1.11359e-17 8.20707)
(2.0654 -1.23407e-17 8.73967)
(10.0009 -1.15905e-19 0.11696)
(9.97868 0 0.231596)
(9.9435 -2.97354e-19 0.345758)
(9.89826 4.81188e-19 0.461421)
(9.84247 -2.43399e-19 0.580174)
(9.77586 4.96253e-19 0.703499)
(9.69847 -5.0105e-19 0.832883)
(9.61053 1.5986e-20 0.969749)
(9.51237 1.00757e-18 1.11546)
(9.40436 -2.10606e-18 1.27135)
(9.28655 9.98949e-19 1.43882)
(9.1589 -6.76248e-20 1.61933)
(9.02142 2.0776e-18 1.81445)
(8.87402 -2.23224e-18 2.02579)
(8.71659 -1.42808e-19 2.25514)
(8.54891 0 2.50441)
(8.37052 0 2.77578)
(8.18076 -2.97289e-19 3.07166)
(7.97857 -4.78707e-18 3.39487)
(7.76249 -1.85286e-20 3.74879)
(7.5303 4.5344e-18 4.13744)
(7.27831 4.86672e-18 4.56549)
(7.00135 -9.76948e-18 5.03891)
(6.69207 5.04557e-18 5.56518)
(6.33891 -1.49758e-19 6.15302)
(5.92367 9.67544e-18 6.81209)
(5.41896 -1.92248e-17 7.55047)
(4.76466 9.7693e-18 8.37339)
(3.95266 4.27767e-20 9.23198)
(2.5127 0 10.1018)
(10.0014 1.15784e-19 0.123123)
(9.98049 0 0.243848)
(9.94773 2.36336e-19 0.36413)
(9.90603 -1.78849e-19 0.486003)
(9.85482 6.03311e-20 0.611078)
(9.79368 -3.05666e-20 0.740883)
(9.72274 -4.98493e-19 0.876967)
(9.64238 5.04793e-19 1.02077)
(9.55301 3.20628e-20 1.17364)
(9.455 -1.04061e-18 1.33696)
(9.34844 1.11426e-18 1.51221)
(9.2334 1.33299e-19 1.70092)
(9.11007 -2.03252e-18 1.90469)
(8.97851 2.18209e-18 2.12522)
(8.83877 0 2.36436)
(8.69081 2.24468e-18 2.6242)
(8.53447 1.09304e-20 2.90711)
(8.36942 -1.32065e-19 3.21581)
(8.19505 -2.71957e-18 3.55351)
(8.01043 4.60603e-18 3.92419)
(7.81417 -4.46595e-18 4.33282)
(7.60382 4.30475e-18 4.78552)
(7.37563 -4.58717e-18 5.29018)
(7.12407 -1.44068e-19 5.85744)
(6.84013 4.54345e-18 6.50139)
(6.50818 -4.40652e-18 7.24102)
(6.10289 -1.37156e-19 8.10106)
(5.55307 0 9.11955)
(4.83773 1.82987e-20 10.3069)
(3.19794 -8.18649e-18 11.8347)
(10.0019 0 0.128802)
(9.9824 0 0.255127)
(9.95218 0 0.381005)
(9.91416 -5.941e-20 0.508522)
(9.86765 -3.00519e-22 0.63934)
(9.81216 3.04434e-20 0.775017)
(9.74791 -4.62535e-19 0.917113)
(9.67539 4.87368e-19 1.06707)
(9.59507 1.01212e-18 1.22626)
(9.5073 2.1454e-20 1.39609)
(9.41226 -1.09688e-18 1.5781)
(9.31022 9.84168e-19 1.77385)
(9.20146 -9.90042e-19 1.98496)
(9.08623 0 2.21316)
(8.96476 0 2.46039)
(8.83727 -2.18054e-18 2.72881)
(8.70393 4.3796e-18 3.02093)
(8.56482 -2.12639e-18 3.33965)
(8.41993 -4.27102e-18 3.68848)
(8.26908 8.80881e-18 4.07175)
(8.11192 -1.5084e-19 4.49502)
(7.94774 -2.42284e-20 4.9654)
(7.77519 -2.34269e-20 5.49222)
(7.59214 -4.2348e-18 6.08832)
(7.39508 3.26524e-20 6.77197)
(7.17703 -7.88464e-21 7.57022)
(6.92767 0 8.52489)
(6.59328 4.07374e-19 9.71552)
(6.19752 1.2971e-20 11.2773)
(4.35916 3.52005e-19 14.3543)
(0.0241429 -6.56757e-20 -0.0359769)
(0.164075 0 -0.0798841)
(0.329988 0 -0.0863684)
(0.491311 2.59735e-20 -0.075933)
(0.633877 -2.40949e-20 -0.0601115)
(0.750093 -8.48693e-23 -0.0438294)
(0.83797 0 -0.0289398)
(0.899131 0 -0.0162304)
(0.937066 0 -0.00592345)
(0.9558 0 0.00212495)
(0.95959 0 0.00787015)
(0.952748 0 0.0105884)
(0.939856 -6.64903e-21 0.0114568)
(0.924468 8.16414e-21 0.011456)
(0.908136 0 0.0107656)
(0.892264 4.50795e-21 0.00895003)
(0.879601 -2.9522e-21 0.00606535)
(0.872581 4.20815e-21 0.00262451)
(0.87052 -2.74668e-21 0.000201466)
(0.870109 1.2684e-21 -0.000437926)
(0.869504 -2.47286e-21 -0.00107839)
(0.870954 0 -0.0024819)
(0.880157 1.56486e-21 -0.00496416)
(0.90109 -1.45154e-21 -0.00786988)
(0.933292 -8.34804e-22 -0.0105483)
(0.973389 7.02338e-22 -0.0133415)
(1.01911 0 -0.0168957)
(1.07075 -4.11789e-22 -0.0207943)
(1.12859 5.23131e-22 -0.0237816)
(1.2082 -1.08371e-23 -0.0242154)
(0.0367636 -1.02878e-21 -0.134804)
(0.186964 0 -0.215028)
(0.34074 3.52542e-21 -0.220574)
(0.488297 1.60592e-21 -0.195087)
(0.620582 -7.41643e-22 -0.159768)
(0.7326 -8.29966e-20 -0.123897)
(0.823009 8.08087e-20 -0.0909678)
(0.893062 0 -0.0626844)
(0.945636 0 -0.0394792)
(0.983987 0 -0.0206748)
(1.01045 0 -0.00624832)
(1.02781 -2.3997e-20 0.00244561)
(1.03945 3.03087e-20 0.00634646)
(1.04695 1.58858e-21 0.00866426)
(1.04933 0 0.0106062)
(1.04716 1.48879e-21 0.00991451)
(1.04403 2.89558e-21 0.00675606)
(1.04308 -1.39763e-21 0.00357966)
(1.04492 0 0.00226854)
(1.04545 0 0.00273166)
(1.04174 -1.15894e-21 0.00158627)
(1.03657 4.61373e-21 -0.00402796)
(1.03336 -1.04708e-21 -0.0133067)
(1.03456 9.45199e-22 -0.0236319)
(1.04165 8.28173e-22 -0.0310769)
(1.05181 7.07251e-22 -0.0345857)
(1.06135 0 -0.0360748)
(1.07158 4.1169e-22 -0.0377423)
(1.08695 -5.1322e-22 -0.0406633)
(1.12505 3.68176e-22 -0.0429188)
(0.0291318 2.56873e-19 -0.265099)
(0.1775 -2.36389e-19 -0.346699)
(0.306369 -3.47374e-21 -0.342383)
(0.424042 -1.59264e-21 -0.301594)
(0.527059 0 -0.249028)
(0.613626 8.18267e-20 -0.196188)
(0.683439 -1.5515e-19 -0.147497)
(0.737607 6.92692e-20 -0.105927)
(0.778277 0 -0.0722216)
(0.808837 0 -0.0447815)
(0.830583 0 -0.0237925)
(0.844088 -3.52707e-21 -0.0101486)
(0.854223 2.32766e-20 -0.000754886)
(0.86501 -2.30119e-20 0.00815283)
(0.872208 0 0.0140235)
(0.869276 -3.03325e-21 0.0135474)
(0.861124 1.46486e-20 0.00637675)
(0.851829 -1.70473e-20 -0.00192308)
(0.841424 1.10926e-20 -0.00376202)
(0.825008 0 0.000328295)
(0.797411 1.30802e-22 0.00414319)
(0.759323 7.01282e-21 0.00264241)
(0.71672 -4.4894e-21 -0.00365494)
(0.675987 0 -0.0108305)
(0.642547 0 -0.0158833)
(0.622382 -3.72088e-21 -0.0201092)
(0.614491 -2.98946e-21 -0.0264405)
(0.620495 -1.74899e-22 -0.0368454)
(0.637555 -8.86627e-22 -0.0506622)
(0.673949 -1.06852e-23 -0.0642045)
(-0.00414941 2.60565e-19 -0.401458)
(0.140381 -2.47969e-19 -0.462453)
(0.238988 2.10965e-19 -0.437409)
(0.322898 -2.03848e-19 -0.378734)
(0.39229 -1.40834e-21 -0.310976)
(0.448488 0 -0.245095)
(0.492479 1.45143e-19 -0.184489)
(0.526528 -1.42943e-19 -0.133605)
(0.549504 -6.54107e-20 -0.0931634)
(0.566927 6.44074e-20 -0.0574898)
(0.579995 0 -0.02845)
(0.585505 0 -0.0168043)
(0.585493 -5.41281e-20 -0.0170502)
(0.586639 1.39355e-20 -0.00940693)
(0.569621 2.98116e-22 0.00590242)
(0.532172 1.86202e-22 0.0169197)
(0.47807 1.84607e-20 0.0196264)
(0.409229 3.32948e-23 0.0184619)
(0.350572 -5.7843e-21 0.0240549)
(0.310192 1.08298e-20 0.0340281)
(0.274607 -1.58846e-20 0.0404324)
(0.243834 0 0.0390723)
(0.21933 0 0.0289895)
(0.201784 -4.1655e-21 0.0122033)
(0.199895 0 -0.00720804)
(0.204833 4.4095e-21 -0.0235783)
(0.211773 1.06275e-21 -0.0371559)
(0.219036 0 -0.0498347)
(0.22391 1.09166e-21 -0.0633962)
(0.230123 3.53829e-22 -0.078599)
(-0.051134 2.41149e-19 -0.519154)
(0.0776756 -1.83439e-20 -0.553091)
(0.13578 -2.19345e-19 -0.501721)
(0.179586 -3.06386e-21 -0.424439)
(0.209714 1.77549e-19 -0.344604)
(0.229515 -1.76013e-19 -0.270789)
(0.240671 4.91122e-21 -0.203584)
(0.25137 -1.41737e-19 -0.14772)
(0.246243 6.59597e-21 -0.107757)
(0.240104 1.86543e-19 -0.0768429)
(0.237944 -1.15047e-19 -0.0452972)
(0.215268 -6.14835e-21 -0.0163107)
(0.13618 6.48692e-20 0.00431712)
(0.0566416 1.38465e-20 0.0265705)
(0.0176201 -2.67435e-20 0.0527644)
(-0.0196477 6.68486e-21 0.0683654)
(-0.0614552 2.57797e-20 0.0707196)
(-0.110384 -1.2557e-20 0.0625605)
(-0.140208 1.70453e-22 0.0547199)
(-0.156732 -5.439e-21 0.0517368)
(-0.165839 2.17647e-20 0.0487954)
(-0.1678 -2.05963e-20 0.0394193)
(-0.166243 4.88399e-21 0.0226389)
(-0.164624 4.24455e-21 0.00322703)
(-0.162298 0 -0.0127774)
(-0.162181 -1.4033e-21 -0.0257784)
(-0.166139 5.21594e-21 -0.0371803)
(-0.172693 1.04711e-21 -0.0481121)
(-0.182669 0 -0.061591)
(-0.193166 -7.48484e-22 -0.0781124)
(-0.10471 4.94944e-19 -0.599299)
(-0.00860144 -4.70265e-19 -0.607394)
(-0.00200905 -4.17446e-19 -0.525226)
(-0.00635608 4.13924e-19 -0.428321)
(-0.0232993 1.81184e-19 -0.338066)
(-0.0492854 -1.80937e-19 -0.259661)
(-0.0833234 0 -0.191894)
(-0.101193 9.45114e-21 -0.129818)
(-0.164066 1.29981e-19 -0.070883)
(-0.248021 3.0016e-21 -0.02502)
(-0.301868 -7.38122e-20 0.0179811)
(-0.351318 -1.11761e-19 0.0508475)
(-0.392879 5.02484e-20 0.0625627)
(-0.430671 -6.84115e-21 0.0640719)
(-0.453534 1.31602e-20 0.0725421)
(-0.474013 6.41917e-21 0.0818455)
(-0.493096 0 0.0813465)
(-0.51125 1.82915e-20 0.0722255)
(-0.522781 -5.85332e-21 0.0613812)
(-0.52726 5.59751e-21 0.0528773)
(-0.52523 -1.04778e-20 0.0443864)
(-0.519315 1.56761e-20 0.0325831)
(-0.513883 1.40559e-20 0.0174833)
(-0.511887 -8.32753e-21 0.00203125)
(-0.512291 5.01345e-22 -0.0117921)
(-0.517021 9.37449e-21 -0.023312)
(-0.526704 -3.73742e-21 -0.0329374)
(-0.540871 -1.01651e-21 -0.0427682)
(-0.55807 0 -0.0563685)
(-0.571559 0 -0.0724275)
(-0.165851 -5.1195e-19 -0.631769)
(-0.117537 -7.37615e-21 -0.608246)
(-0.167725 0 -0.491552)
(-0.228517 3.93477e-19 -0.374932)
(-0.299524 -7.47431e-19 -0.276197)
(-0.380386 3.61146e-19 -0.192409)
(-0.466809 0 -0.120271)
(-0.545336 -1.83805e-20 -0.0593539)
(-0.609825 -8.59643e-21 -0.0143815)
(-0.664573 0 0.0168976)
(-0.709692 -1.18912e-19 0.040742)
(-0.740161 1.1595e-19 0.0587034)
(-0.772147 -5.41316e-20 0.0705135)
(-0.799772 3.98304e-20 0.0783993)
(-0.819464 3.80717e-20 0.0845186)
(-0.832326 -6.21319e-20 0.0880615)
(-0.840746 -2.4274e-20 0.0845411)
(-0.847082 6.25988e-23 0.0745399)
(-0.850803 1.15848e-20 0.0624615)
(-0.850907 0 0.0512742)
(-0.847523 1.03419e-20 0.0402789)
(-0.842705 -2.00422e-20 0.0279361)
(-0.839408 0 0.0142886)
(-0.839538 -1.21733e-20 0.00112389)
(-0.842632 3.80466e-21 -0.00978497)
(-0.850833 -5.92494e-21 -0.0184917)
(-0.865 0 -0.0258759)
(-0.884524 -6.66774e-22 -0.034413)
(-0.906422 4.89802e-22 -0.0475761)
(-0.921095 -4.84548e-22 -0.0623318)
(-0.228773 0 -0.608935)
(-0.242242 -1.532e-22 -0.537249)
(-0.349926 -3.48873e-21 -0.396621)
(-0.460888 3.93623e-19 -0.278349)
(-0.573517 -7.52526e-19 -0.183986)
(-0.679267 3.54945e-19 -0.111419)
(-0.77193 1.63021e-19 -0.055772)
(-0.850753 -1.40817e-19 -0.0106865)
(-0.919866 1.67548e-20 0.0260558)
(-0.97521 -1.55484e-20 0.0529279)
(-1.01673 0 0.0710505)
(-1.05174 0 0.0828513)
(-1.08177 -1.31334e-20 0.0893793)
(-1.10644 1.27305e-20 0.092596)
(-1.1243 3.70634e-20 0.0939665)
(-1.13545 -4.84049e-20 0.0924009)
(-1.14186 0 0.085785)
(-1.14584 -6.88604e-23 0.0746905)
(-1.14805 1.1214e-20 0.0618872)
(-1.1483 -2.21282e-20 0.0494134)
(-1.14695 -2.08124e-20 0.0373415)
(-1.14547 1.96229e-20 0.025085)
(-1.14584 -9.38618e-21 0.0128335)
(-1.14943 4.25114e-21 0.00187545)
(-1.15597 3.76296e-21 -0.00635676)
(-1.16677 0 -0.0120364)
(-1.18462 -9.83821e-22 -0.0168754)
(-1.20847 9.63957e-22 -0.0239305)
(-1.23405 -1.81438e-21 -0.0361324)
(-1.24957 6.57359e-22 -0.0493771)
(-0.288664 5.31123e-19 -0.52621)
(-0.364044 1.52774e-20 -0.412142)
(-0.515324 3.49676e-21 -0.268506)
(-0.658465 -3.99825e-19 -0.159928)
(-0.792091 3.91926e-19 -0.0800429)
(-0.912532 0 -0.0201837)
(-1.02006 -2.93142e-20 0.0247579)
(-1.10807 1.38882e-19 0.0562676)
(-1.17603 -1.34802e-19 0.0770589)
(-1.23219 1.5157e-20 0.090865)
(-1.27911 1.40537e-20 0.100512)
(-1.31784 -1.32731e-20 0.1061)
(-1.34965 1.39172e-22 0.107692)
(-1.37505 0 0.106442)
(-1.39384 6.01534e-20 0.103126)
(-1.40647 -4.7178e-20 0.097151)
(-1.41454 -1.16493e-20 0.0876581)
(-1.41991 1.14322e-20 0.0752736)
(-1.42363 0 0.0618219)
(-1.42619 -2.14791e-20 0.0487546)
(-1.42825 3.112e-20 0.0364368)
(-1.43102 -2.94416e-20 0.024766)
(-1.43594 9.33963e-21 0.0140106)
(-1.44397 0 0.00508272)
(-1.45512 3.23457e-21 -0.000922818)
(-1.46942 2.68703e-21 -0.00401645)
(-1.4891 5.48815e-21 -0.00631803)
(-1.51574 2.77745e-21 -0.0113792)
(-1.54439 1.32164e-21 -0.0221508)
(-1.56063 -1.59468e-22 -0.0340277)
(-0.339426 0 -0.39433)
(-0.469038 -1.58336e-20 -0.250798)
(-0.661056 0 -0.115373)
(-0.840425 4.19715e-19 -0.016016)
(-1.00068 -3.92569e-19 0.0491139)
(-1.13314 -2.11968e-20 0.0864311)
(-1.23885 1.67439e-19 0.106802)
(-1.32674 -1.43771e-19 0.119286)
(-1.40027 0 0.127408)
(-1.46211 -1.45068e-20 0.132018)
(-1.51375 -1.3747e-20 0.133501)
(-1.55629 1.29879e-20 0.131968)
(-1.59096 -3.66176e-20 0.127753)
(-1.61862 4.79994e-20 0.121529)
(-1.63978 1.15923e-20 0.113596)
(-1.65526 -3.48215e-20 0.103623)
(-1.6664 4.54474e-20 0.0913762)
(-1.67477 -2.26222e-20 0.0775332)
(-1.68157 2.22289e-20 0.0634235)
(-1.68772 1.09398e-20 0.0501318)
(-1.69414 1.03013e-20 0.0380673)
(-1.70192 9.70365e-21 0.0273001)
(-1.71212 0 0.0180836)
(-1.7253 0 0.0110314)
(-1.74141 -7.09781e-21 0.00681747)
(-1.76056 -3.14993e-21 0.00537422)
(-1.78409 -6.96454e-21 0.00491532)
(-1.8131 -3.04224e-21 0.00185428)
(-1.84177 3.24884e-21 -0.00685704)
(-1.85696 -1.15781e-21 -0.0169429)
(-0.382606 5.74857e-19 -0.221198)
(-0.576149 8.09689e-21 -0.0437671)
(-0.819765 0 0.0992512)
(-1.01907 -1.29382e-20 0.159638)
(-1.18387 3.54725e-19 0.182303)
(-1.32148 -3.21849e-19 0.189762)
(-1.43519 0 0.189809)
(-1.52926 1.1337e-19 0.186679)
(-1.60765 -1.26348e-19 0.182272)
(-1.6736 3.56183e-22 0.176779)
(-1.72891 0 0.16958)
(-1.7747 -1.2159e-20 0.160492)
(-1.81215 5.87904e-20 0.149972)
(-1.84242 -4.61618e-20 0.138506)
(-1.86653 -5.68294e-20 0.126094)
(-1.88544 7.85645e-20 0.112436)
(-1.90033 -4.45829e-20 0.0975663)
(-1.91254 2.21536e-20 0.0822223)
(-1.92336 2.20849e-20 0.0675096)
(-1.93396 -5.38882e-20 0.0542761)
(-1.94544 2.10855e-20 0.0428452)
(-1.95881 0 0.0332611)
(-1.97489 -5.48528e-22 0.0256629)
(-1.99395 -8.54014e-21 0.0204065)
(-2.01569 1.73372e-20 0.0178206)
(-2.0404 -3.1786e-21 0.0176707)
(-2.06969 0 0.0184739)
(-2.10463 -5.94316e-21 0.0171711)
(-2.13882 -3.30923e-21 0.011093)
(-2.1564 1.30731e-21 0.0033546)
(-0.41866 -5.76696e-19 0.046387)
(-0.672741 1.03013e-18 0.260277)
(-0.951348 -4.68246e-19 0.323318)
(-1.17723 -2.41499e-20 0.333095)
(-1.36033 0 0.320586)
(-1.50738 1.50987e-19 0.300168)
(-1.62558 -1.29345e-19 0.277616)
(-1.72154 1.24129e-19 0.256894)
(-1.80135 -1.20351e-19 0.239494)
(-1.86916 -9.07908e-20 0.223923)
(-1.92675 1.38637e-19 0.208005)
(-1.97485 -3.58337e-20 0.191157)
(-2.01446 -5.63974e-20 0.174142)
(-2.04714 4.40406e-20 0.157513)
(-2.0743 0 0.140955)
(-2.09695 1.07941e-20 0.123949)
(-2.11598 -2.19277e-20 0.106606)
(-2.13252 0 0.0897881)
(-2.14792 0 0.0745726)
(-2.16355 2.16227e-20 0.0616476)
(-2.18061 -1.08735e-20 0.0511449)
(-2.19993 6.76855e-24 0.0429257)
(-2.22197 9.65039e-21 0.0369254)
(-2.24659 1.70615e-20 0.033257)
(-2.27322 -7.00778e-21 0.0320275)
(-2.30206 0 0.0329318)
(-2.33507 9.28554e-22 0.0347371)
(-2.37349 1.08026e-20 0.0349335)
(-2.41029 -1.23611e-22 0.0311183)
(-2.42871 1.23008e-21 0.025405)
(-0.421946 -5.53724e-19 0.416124)
(-0.749212 5.34132e-19 0.586403)
(-1.10015 3.96314e-19 0.584638)
(-1.35796 -3.80127e-19 0.527064)
(-1.5492 -1.94571e-20 0.465567)
(-1.69565 1.40435e-19 0.412425)
(-1.81061 -1.37666e-19 0.36525)
(-1.90223 1.31025e-19 0.326079)
(-1.97874 -7.13341e-21 0.296456)
(-2.04569 -9.11674e-20 0.272104)
(-2.10407 2.31072e-20 0.24806)
(-2.15319 1.06103e-20 0.223354)
(-2.19368 -1.02757e-20 0.199811)
(-2.22778 1.01472e-20 0.178451)
(-2.25742 0 0.158361)
(-2.28345 -2.10347e-20 0.138428)
(-2.30623 2.19684e-20 0.118747)
(-2.32658 -1.04948e-20 0.100474)
(-2.34592 0 0.0848537)
(-2.36586 1.12029e-20 0.0724414)
(-2.38766 0 0.0630315)
(-2.41191 -1.00035e-20 0.0561384)
(-2.43861 -9.23413e-21 0.0514385)
(-2.46723 -8.26319e-21 0.04887)
(-2.49701 -7.42464e-21 0.0484677)
(-2.52815 0 0.0500274)
(-2.56297 0 0.0526618)
(-2.60316 1.37447e-22 0.0544088)
(-2.64158 0 0.0530492)
(-2.66066 -2.14867e-21 0.0495494)
(-0.417432 0 0.831889)
(-0.866893 -2.70077e-20 1.01454)
(-1.31245 0 0.892052)
(-1.58102 2.08113e-20 0.730111)
(-1.75355 1.58334e-19 0.604)
(-1.88265 -1.51727e-19 0.518544)
(-1.98491 -1.24064e-21 0.446101)
(-2.0639 -1.32478e-20 0.388166)
(-2.13042 0 0.34933)
(-2.19306 4.38193e-20 0.319895)
(-2.25055 -9.66664e-20 0.289097)
(-2.29855 -3.50244e-23 0.256063)
(-2.33695 8.91398e-20 0.225745)
(-2.36953 -9.78944e-20 0.20042)
(-2.39924 2.9267e-20 0.177762)
(-2.42636 2.11781e-20 0.15534)
(-2.45024 5.70826e-22 0.133274)
(-2.47131 -1.08825e-20 0.113408)
(-2.49129 1.13759e-20 0.0974406)
(-2.51235 -2.23171e-20 0.0857954)
(-2.53601 2.23465e-20 0.0777151)
(-2.56275 1.02195e-20 0.0721709)
(-2.59217 -1.00257e-20 0.0685354)
(-2.6234 0 0.0666523)
(-2.65544 7.32695e-21 0.0666011)
(-2.6884 0 0.0683812)
(-2.72468 9.55492e-22 0.0715576)
(-2.76637 -6.78455e-21 0.0747846)
(-2.80644 3.07302e-21 0.0759178)
(-2.82648 9.20159e-22 0.0745443)
(-0.448364 0 1.46144)
(-1.05499 0 1.84984)
(-1.63457 1.23001e-19 1.33309)
(-1.86902 -1.10078e-19 0.913136)
(-1.97246 1.19725e-19 0.674303)
(-2.05786 -2.00182e-19 0.591548)
(-2.13839 9.53317e-20 0.510975)
(-2.19337 1.3036e-20 0.439828)
(-2.23986 1.09897e-20 0.39651)
(-2.29496 -1.08426e-20 0.367643)
(-2.3513 0 0.330471)
(-2.39578 2.68661e-20 0.286529)
(-2.42731 -3.57425e-20 0.248319)
(-2.45383 1.80448e-20 0.22044)
(-2.48057 -9.69648e-21 0.196853)
(-2.50639 1.9255e-20 0.17233)
(-2.52873 -1.04309e-20 0.147423)
(-2.54755 -1.11072e-20 0.12555)
(-2.56543 -1.13043e-20 0.10934)
(-2.58563 0 0.0990201)
(-2.61017 -2.25894e-20 0.0929061)
(-2.63926 2.24781e-20 0.0891326)
(-2.67188 0 0.0867118)
(-2.7065 4.26114e-21 0.0854638)
(-2.74165 1.5423e-20 0.0856036)
(-2.7771 -1.65639e-20 0.087387)
(-2.81523 -9.89294e-22 0.0908991)
(-2.85858 -5.32405e-21 0.0955712)
(-2.90059 -2.92802e-21 0.0994098)
(-2.92194 1.08858e-21 0.10032)
(10.0025 5.51362e-20 0.134061)
(9.98444 -5.54941e-20 0.265574)
(9.95692 -2.24897e-19 0.396616)
(9.92275 2.26692e-19 0.529327)
(9.88116 4.59816e-19 0.665415)
(9.83163 -4.63769e-19 0.806453)
(9.77446 -2.94736e-20 0.953988)
(9.7102 7.45802e-21 1.10946)
(9.63938 7.49287e-21 1.27426)
(9.56236 9.60769e-19 1.44983)
(9.47947 -1.06721e-20 1.63771)
(9.39113 -9.92266e-19 1.83946)
(9.29775 -6.30806e-20 2.05669)
(9.19977 3.14558e-20 2.29117)
(9.09765 -2.04288e-18 2.54483)
(8.99189 4.10147e-18 2.81988)
(8.88302 -4.11655e-18 3.11884)
(8.77165 2.12557e-18 3.44467)
(8.65842 -1.59315e-20 3.80097)
(8.54411 4.09167e-18 4.19219)
(8.42966 -4.07226e-18 4.62398)
(8.31635 4.04652e-18 5.1037)
(8.20594 -3.96411e-18 5.64097)
(8.10109 0 6.24904)
(8.00649 -3.59306e-18 6.94685)
(7.93053 3.0986e-18 7.76281)
(7.8971 -3.40674e-18 8.74136)
(7.94277 2.54737e-18 9.96252)
(8.63359 0 11.5032)
(9.15469 0 14.4884)
(10.003 0 0.138906)
(9.98659 0 0.275186)
(9.96192 -1.09565e-19 0.410949)
(9.93177 4.40477e-19 0.548372)
(9.89528 -2.22571e-19 0.689201)
(9.85195 4.5086e-19 0.835012)
(9.80212 -5.10809e-19 0.987326)
(9.74641 0 1.14759)
(9.68537 -7.28978e-21 1.31719)
(9.61942 0 1.49759)
(9.54905 1.48784e-20 1.69028)
(9.47479 3.71579e-21 1.89681)
(9.39722 -1.93009e-18 2.11877)
(9.31697 -3.59853e-20 2.35789)
(9.23474 1.94681e-18 2.61607)
(9.15132 0 2.89546)
(9.06765 5.92492e-23 3.19849)
(8.98483 0 3.52805)
(8.90423 1.92641e-18 3.88755)
(8.82756 -1.87423e-18 4.2812)
(8.75712 1.89311e-18 4.71426)
(8.69612 -1.93597e-18 5.19338)
(8.64924 2.23571e-19 5.72703)
(8.62366 -1.72337e-18 6.3263)
(8.63137 3.51989e-18 7.00592)
(8.693 -1.18772e-18 7.78526)
(8.85219 2.09078e-20 8.68767)
(9.12663 0 9.74032)
(9.83424 0 10.8932)
(10.5165 0 12.1229)
(10.0036 0 0.14325)
(9.98883 1.0441e-19 0.283804)
(9.96713 -1.06019e-19 0.423787)
(9.94115 2.13874e-19 0.5654)
(9.90995 -2.69535e-19 0.710405)
(9.87302 4.36541e-19 0.86037)
(9.83075 -3.8431e-19 1.01679)
(9.78381 -5.53567e-20 1.1811)
(9.73278 -8.98982e-19 1.35468)
(9.67819 9.03943e-19 1.53896)
(9.62061 0 1.73539)
(9.56071 1.06769e-20 1.94545)
(9.49922 1.43652e-20 2.17069)
(9.43696 -1.85927e-18 2.41276)