/*--------------------------------*- C++ -*----------------------------------*\
| =========                 |                                                 |
| \\      /  F ield         | OpenFOAM: The Open Source CFD Toolbox           |
|  \\    /   O peration     | Version:  4.1                                   |
|   \\  /    A nd           | Web:      www.OpenFOAM.org                      |
|    \\/     M anipulation  |                                                 |
\*---------------------------------------------------------------------------*/
FoamFile
{
    version     2.0;
    format      ascii;
    class       surfaceVectorField;
    location    "3.3";
    object      Uf;
}
// * * * * * * * * * * * * * * * * * * * * * * * * * * * * * * * * * * * * * //

dimensions      [0 1 -1 0 0 0 0];

internalField   nonuniform List<vector> 
5457
(
(9.91547 1.76242e-21 0.0251276)
(9.97545 7.54785e-21 0.0390249)
(9.81443 9.16838e-23 0.0324463)
(9.92735 -1.15208e-20 0.0479824)
(9.69696 -6.33088e-21 0.0385585)
(9.8495 3.93182e-21 0.0574869)
(9.56084 -1.66044e-20 0.044887)
(9.74903 -8.15236e-21 0.0686437)
(9.4062 9.11687e-21 0.0514199)
(9.62986 -7.42064e-21 0.0803313)
(9.23341 3.28277e-20 0.0581892)
(9.49222 -1.67268e-20 0.092451)
(9.0424 -3.17818e-21 0.0653359)
(9.33557 5.24555e-20 0.105247)
(8.83273 1.60527e-20 0.0730032)
(9.15944 -1.83475e-20 0.118957)
(8.60371 -6.89724e-21 0.0813155)
(8.96333 -3.61225e-20 0.133773)
(8.35449 -3.89202e-20 0.090391)
(8.74655 -1.1734e-19 0.149873)
(8.08402 0 0.100351)
(8.50817 3.17489e-19 0.167433)
(7.79115 9.20978e-20 0.111321)
(8.2471 -3.09156e-19 0.186635)
(7.47461 -2.97027e-20 0.123428)
(7.96212 3.91132e-19 0.207655)
(7.13306 -2.17385e-19 0.136791)
(7.65191 -2.72904e-19 0.23065)
(6.76519 -1.00225e-19 0.151525)
(7.31513 -1.00103e-19 0.255747)
(6.36974 1.38043e-19 0.167722)
(6.95043 3.4442e-19 0.283029)
(5.94564 3.75607e-19 0.185434)
(6.55658 -2.96933e-19 0.312495)
(5.49216 -1.82664e-20 0.204648)
(6.13253 2.36622e-19 0.344018)
(5.00907 -2.44713e-19 0.225254)
(5.67765 -3.62514e-19 0.377288)
(4.49688 3.6436e-19 0.247011)
(5.19184 0 0.411751)
(3.95712 3.58561e-19 0.26949)
(4.67584 -7.4323e-19 0.446534)
(3.39267 -3.31219e-19 0.292002)
(4.13151 1.09681e-18 0.480352)
(2.80813 -3.2665e-19 0.313495)
(3.56215 -1.51384e-18 0.511398)
(2.21028 0 0.3324)
(2.97299 1.25737e-18 0.537213)
(1.60868 1.08474e-19 0.346403)
(2.3717 -1.36636e-18 0.554538)
(1.01623 1.06243e-19 0.352467)
(1.76934 4.43467e-18 0.559211)
(0.448901 0 0.337046)
(1.1815 -1.87922e-19 0.546975)
(-0.0676724 0 0.0831051)
(0.632026 -3.45739e-18 0.504754)
(-0.249802 -1.95291e-18 -0.274505)
(0.116145 0 0.177282)
(0.109632 -1.92436e-18 -0.249909)
(9.99675 -6.00717e-21 0.0513957)
(10.0032 3.77221e-21 0.0405255)
(9.95837 -7.45052e-21 0.0695321)
(9.98111 -9.58315e-21 0.0662103)
(9.8975 1.92932e-21 0.0856066)
(9.93335 3.71661e-20 0.0872807)
(9.81622 1.04234e-21 0.102542)
(9.86374 -9.39086e-20 0.109632)
(9.71457 -3.33999e-20 0.120329)
(9.77486 -4.13109e-22 0.133139)
(9.5927 3.91595e-21 0.139003)
(9.66711 3.29405e-20 0.157667)
(9.45053 3.62552e-20 0.158862)
(9.54018 -4.10488e-20 0.183593)
(9.28769 -7.07809e-20 0.18023)
(9.39373 7.06164e-20 0.211359)
(9.10355 -1.47737e-19 0.203391)
(9.22735 -6.97747e-20 0.241351)
(8.8973 2.45323e-19 0.228611)
(9.04043 -7.78582e-20 0.27393)
(8.66793 -6.31987e-22 0.256161)
(8.83214 3.17517e-19 0.309459)
(8.4143 -1.3557e-22 0.286309)
(8.60149 -3.29414e-19 0.34831)
(8.13513 1.38495e-19 0.319305)
(8.34733 3.00471e-19 0.390854)
(7.82906 -1.53159e-19 0.355366)
(8.06841 -1.11866e-19 0.437423)
(7.4947 3.50851e-19 0.394652)
(7.76339 0 0.488301)
(7.1307 -9.96031e-20 0.437233)
(7.43092 2.98923e-19 0.543691)
(6.73582 -4.2849e-19 0.483021)
(7.06967 -4.34642e-19 0.603643)
(6.30909 -1.15948e-19 0.531702)
(6.67841 -9.38502e-19 0.667962)
(5.85 -1.12774e-19 0.582646)
(6.25618 -1.2616e-19 0.736108)
(5.35866 -1.11792e-18 0.634802)
(5.8024 9.09347e-19 0.807058)
(4.83618 1.91248e-20 0.686571)
(5.31717 8.41044e-19 0.879148)
(4.28491 -1.19491e-19 0.735642)
(4.80147 -9.36944e-19 0.949868)
(3.70897 1.04083e-19 0.778781)
(4.25753 9.95463e-19 1.01561)
(3.1148 -1.39987e-19 0.811516)
(3.68931 -7.49846e-19 1.07132)
(2.5122 3.02214e-18 0.827492)
(3.10304 -1.36649e-18 1.10988)
(1.91654 4.09661e-18 0.816712)
(2.50817 4.657e-18 1.12071)
(1.35635 -3.67418e-18 0.758236)
(1.91855 -3.22406e-18 1.08511)
(0.886724 -3.43571e-18 0.587767)
(1.34679 -3.54187e-19 0.960333)
(0.384369 4.69725e-22 0.171268)
(0.806944 -6.9271e-18 0.662876)
(0.41514 -5.19223e-19 0.144844)
(9.98943 0 0.0585463)
(10.001 -3.00498e-20 0.0454085)
(9.95438 3.57383e-20 0.08708)
(9.97633 -1.53322e-20 0.0828581)
(9.89725 -6.06294e-20 0.113973)
(9.92964 6.23852e-20 0.115249)
(9.82106 -9.39792e-20 0.1421)
(9.86317 -1.63632e-19 0.148059)
(9.72637 6.6426e-20 0.171727)
(9.77836 6.34137e-20 0.182341)
(9.61325 -1.31026e-20 0.202996)
(9.67564 -6.69558e-20 0.218208)
(9.48168 -5.06323e-21 0.236322)
(9.55497 -7.89614e-20 0.25611)
(9.33141 6.95993e-20 0.272188)
(9.41618 2.10601e-19 0.296639)
(9.16197 0 0.311048)
(9.259 1.8065e-20 0.340355)
(8.97269 0 0.353345)
(9.08299 0 0.38779)
(8.76274 -2.05126e-20 0.399529)
(8.88751 -3.84283e-20 0.439481)
(8.53113 -1.98387e-20 0.450058)
(8.67176 -2.02264e-20 0.495979)
(8.27671 4.42251e-20 0.505369)
(8.43484 8.24363e-20 0.557844)
(7.99826 4.28987e-20 0.565851)
(8.17572 7.65861e-22 0.625591)
(7.69445 -4.77637e-20 0.631817)
(7.89327 0 0.699679)
(7.36394 -4.64401e-20 0.703444)
(7.58631 7.87637e-19 0.780476)
(7.00538 -9.51717e-19 0.780674)
(7.25364 1.0763e-20 0.868155)
(6.61754 -9.37824e-19 0.863092)
(6.89403 -1.73333e-18 0.962579)
(6.19942 9.10006e-19 0.949784)
(6.50635 9.29256e-20 1.06315)
(5.75042 2.86784e-18 1.03914)
(6.08962 9.09661e-19 1.1686)
(5.27058 -1.38176e-19 1.12865)
(5.64318 9.73892e-20 1.27678)
(4.76085 2.02794e-19 1.21459)
(5.16688 -1.13515e-19 1.38431)
(4.2235 1.20378e-19 1.29166)
(4.66129 2.17937e-18 1.48622)
(3.66257 -1.98395e-18 1.35241)
(4.12799 -1.18086e-19 1.5754)
(3.08451 3.33407e-19 1.38625)
(3.5698 2.02543e-18 1.6418)
(2.4987 -2.73923e-18 1.37712)
(2.99086 -5.12773e-18 1.67092)
(1.91557 1.19102e-19 1.29808)
(2.3959 -8.28176e-18 1.6412)
(1.33266 -3.88653e-18 1.10397)
(1.78674 9.13496e-18 1.52007)
(0.700201 -7.40216e-18 0.74285)
(1.13377 -1.32465e-17 1.26918)
(0.598564 7.0687e-18 0.829471)
(9.98534 -4.51842e-20 0.0700914)
(9.99975 -5.27107e-23 0.052178)
(9.95035 1.24808e-20 0.110188)
(9.97337 -4.57342e-20 0.0994845)
(9.89426 -4.39901e-20 0.148442)
(9.92658 2.71784e-20 0.142713)
(9.81935 -2.86609e-21 0.187475)
(9.86135 -6.18162e-20 0.185852)
(9.72654 -7.1885e-20 0.228099)
(9.77834 1.94614e-19 0.230579)
(9.61603 -1.32991e-19 0.270751)
(9.67785 -2.74022e-19 0.277372)
(9.48784 1.40924e-19 0.316016)
(9.56001 7.37285e-21 0.32678)
(9.34189 1.56296e-19 0.364542)
(9.42478 -1.39872e-19 0.379497)
(9.17788 1.78074e-20 0.416966)
(9.272 2.85128e-19 0.436222)
(8.99536 -3.89793e-20 0.473905)
(9.10137 -2.96271e-19 0.497633)
(8.79373 -3.78863e-20 0.535991)
(8.91243 -4.17184e-20 0.564403)
(8.57228 8.35091e-20 0.603868)
(8.70458 3.5056e-19 0.637232)
(8.3302 3.78295e-20 0.678163)
(8.47716 1.22561e-19 0.716829)
(8.06656 -4.21551e-20 0.759452)
(8.22944 -4.27615e-20 0.803867)
(7.78036 8.46527e-19 0.848233)
(7.96055 7.84285e-19 0.898958)
(7.47056 8.34232e-19 0.944857)
(7.6696 1.21104e-19 1.00262)
(7.13606 -7.94973e-19 1.04941)
(7.35568 1.07672e-20 1.11518)
(6.77573 -6.77545e-19 1.16155)
(7.01778 -5.04542e-19 1.23664)
(6.38847 1.03385e-19 1.28035)
(6.65484 -1.51957e-18 1.36647)
(5.97327 -1.87252e-18 1.404)
(6.26577 1.67046e-18 1.50344)
(5.52935 1.18981e-19 1.52953)
(5.84944 -8.24053e-20 1.64523)
(5.05625 1.89327e-18 1.65239)
(5.40477 9.41783e-20 1.78811)
(4.55407 1.91353e-18 1.76602)
(4.93075 0 1.92648)
(4.02352 3.91805e-18 1.86116)
(4.42647 -2.1744e-18 2.05229)
(3.46583 -3.5127e-18 1.92496)
(3.89099 2.25569e-18 2.15436)
(2.88173 -1.0701e-17 1.93975)
(3.32292 -9.38923e-19 2.21768)
(2.26821 8.81667e-19 1.88103)
(2.71919 -4.94094e-18 2.22288)
(1.61287 -3.68432e-19 1.72015)
(2.07594 5.70215e-18 2.14531)
(0.883883 1.43199e-18 1.4273)
(1.34891 -6.3188e-18 1.96467)
(0.705738 1.74353e-18 1.63288)
(9.98338 -1.24487e-21 0.0822402)
(9.99922 3.00038e-20 0.0598517)
(9.94803 -2.99449e-20 0.132341)
(9.97195 -1.52282e-20 0.116288)
(9.89292 8.02548e-21 0.180735)
(9.92527 0 0.169705)
(9.81943 1.39472e-19 0.229821)
(9.86134 1.30181e-19 0.222939)
(9.72852 -1.44094e-20 0.28081)
(9.78031 1.49435e-21 0.277845)
(9.62047 -1.29548e-19 0.33439)
(9.68228 -1.31991e-19 0.335239)
(9.49532 -2.75569e-19 0.391256)
(9.56741 8.48951e-21 0.3958)
(9.35303 -4.94256e-21 0.452157)
(9.43574 -2.62705e-19 0.460311)
(9.19338 -3.72536e-20 0.51784)
(9.28719 2.67112e-19 0.529583)
(9.01604 -2.95417e-19 0.589045)
(9.12151 -6.2508e-19 0.604412)
(8.82055 3.5232e-19 0.666517)
(8.93834 9.33782e-19 0.685597)
(8.60636 3.86458e-19 0.751018)
(8.73717 2.42245e-19 0.77395)
(8.37288 3.96489e-20 0.843301)
(8.51752 -7.50376e-19 0.870285)
(8.11944 7.95331e-19 0.944077)
(8.27885 0 0.975407)
(7.84528 4.96699e-20 1.05398)
(8.02047 7.84114e-19 1.09006)
(7.54963 -7.04248e-19 1.17348)
(7.74168 -7.14244e-19 1.21488)
(7.23167 2.94374e-19 1.30284)
(7.44176 1.80568e-19 1.35033)
(6.89046 -1.36036e-18 1.44187)
(7.11989 1.801e-18 1.49659)
(6.52496 8.99514e-20 1.58974)
(6.77512 -4.54686e-18 1.6533)
(6.13399 3.43853e-18 1.74474)
(6.4063 1.6512e-18 1.8194)
(5.7162 -1.04451e-19 1.90384)
(6.01205 3.43771e-18 1.99275)
(5.27002 -1.80157e-18 2.06235)
(5.59056 -1.60763e-18 2.16977)
(4.7936 -4.11554e-18 2.21335)
(5.13955 0 2.34494)
(4.28461 -3.78658e-18 2.34716)
(4.65605 -7.90828e-18 2.51033)
(3.73986 4.79527e-18 2.45077)
(4.13614 4.22824e-18 2.65506)
(3.15431 4.78217e-18 2.50763)
(3.5745 4.25847e-18 2.76505)
(2.51941 -3.02821e-20 2.49758)
(2.96333 3.04182e-19 2.82329)
(1.82146 -3.26953e-19 2.40094)
(2.29725 -3.29063e-19 2.80949)
(1.03734 -5.92856e-18 2.19328)
(1.52873 -1.06335e-17 2.71115)
(0.808028 5.83977e-18 2.48114)
(9.98253 1.53918e-20 0.0947009)
(9.99904 2.982e-20 0.0679207)
(9.94711 1.49484e-20 0.154237)
(9.9715 -1.49916e-20 0.133125)
(9.89318 1.24104e-19 0.212492)
(9.92534 -7.69083e-20 0.196132)
(9.82152 -9.71791e-21 0.27158)
(9.86299 1.84723e-19 0.259116)
(9.73297 -1.18064e-19 0.332867)
(9.78431 -1.2817e-19 0.323906)
(9.62784 8.10208e-21 0.397217)
(9.6892 1.39069e-19 0.391565)
(9.50622 1.74606e-20 0.465424)
(9.57781 1.3488e-19 0.462912)
(9.36806 1.69667e-20 0.538328)
(9.45025 -2.71766e-19 0.538816)
(9.21322 -3.33451e-19 0.616784)
(9.30647 0 0.620187)
(9.04142 6.26264e-19 0.701645)
(9.14631 -2.92882e-19 0.707926)
(8.85227 8.14109e-19 0.793773)
(8.96944 3.44567e-19 0.802949)
(8.64531 -9.08661e-19 0.894027)
(8.77543 5.70287e-19 0.906164)
(8.42008 -7.79779e-19 1.00327)
(8.56387 -7.90465e-19 1.01846)
(8.17604 -4.84412e-22 1.12234)
(8.3343 0 1.14077)
(7.91258 -4.71308e-22 1.25198)
(8.08614 -1.6583e-19 1.27394)
(7.62903 1.83067e-19 1.39282)
(7.81879 -1.5429e-18 1.41875)
(7.32467 1.70948e-18 1.54524)
(7.53156 1.40353e-18 1.5758)
(6.99869 -1.47038e-18 1.70925)
(7.22369 -3.15289e-19 1.74542)
(6.65003 -2.90471e-18 1.88426)
(6.89422 -3.13049e-18 1.92751)
(6.27739 1.67274e-18 2.06881)
(6.54191 1.52531e-18 2.1213)
(5.87894 1.87051e-18 2.26022)
(6.16508 1.47189e-18 2.32508)
(5.45226 2.14999e-19 2.45415)
(5.76139 -4.0686e-19 2.53577)
(4.994 -3.88876e-18 2.64411)
(5.32757 -4.30868e-19 2.74854)
(4.49963 2.47049e-19 2.82104)
(4.85915 -4.29253e-18 2.95625)
(3.96306 3.69153e-18 2.97289)
(4.35016 7.32789e-18 3.14913)
(3.37611 -2.58516e-19 3.08472)
(3.79291 -4.21296e-18 3.3144)
(2.72807 0 3.1392)
(3.17678 0 3.43658)
(2.00582 -1.07019e-17 3.11951)
(2.4964 0 3.49711)
(1.19471 1.35535e-18 2.99925)
(1.7074 -1.03212e-17 3.483)
(0.922551 1.1302e-17 3.341)
(9.98231 -1.1709e-21 0.10723)
(9.99908 1.11461e-22 0.0760928)
(9.94725 -1.07788e-19 0.175778)
(9.97172 6.01187e-20 0.149794)
(9.89472 -1.23954e-20 0.243466)
(9.92647 -1.22633e-19 0.221881)
(9.82525 6.16437e-20 0.31219)
(9.866 6.24432e-20 0.294209)
(9.73948 1.32893e-19 0.383388)
(9.79002 1.31224e-19 0.368538)
(9.63777 2.65806e-19 0.458077)
(9.69825 5.98586e-21 0.44609)
(9.52023 -1.60206e-19 0.537164)
(9.59086 1.34908e-19 0.527813)
(9.38684 -2.849e-19 0.621584)
(9.46798 -2.89047e-19 0.614663)
(9.2375 3.64592e-20 0.712292)
(9.32967 0 0.707634)
(9.07199 -5.65721e-19 0.810249)
(9.17579 3.59573e-20 0.807731)
(8.88997 1.03663e-19 0.916418)
(9.006 -5.92972e-19 0.915977)
(8.69104 6.69911e-19 1.03175)
(8.82001 6.7899e-19 1.03337)
(8.47478 4.12964e-22 1.15719)
(8.61742 -6.13942e-19 1.1609)
(8.2407 -1.67638e-19 1.29369)
(8.39777 -6.38764e-19 1.29958)
(7.98827 -1.7273e-18 1.44214)
(8.16056 1.19954e-18 1.45039)
(7.71682 -2.83264e-19 1.60328)
(7.90521 -4.13716e-20 1.61426)
(7.42564 -6.44473e-19 1.77768)
(7.631 1.06957e-18 1.79193)
(7.11384 -2.0134e-18 1.96555)
(7.33711 -1.63516e-18 1.98396)
(6.78028 1.36155e-18 2.16661)
(7.02248 -4.56282e-18 2.19053)
(6.4234 1.32381e-18 2.37985)
(6.68565 7.70681e-18 2.41126)
(6.041 -8.30386e-19 2.60317)
(6.32464 -5.97777e-18 2.64504)
(5.62991 -1.05358e-18 2.833)
(5.93662 2.94074e-18 2.88962)
(5.18573 -8.80149e-19 3.06384)
(5.51753 -2.91592e-18 3.14114)
(4.70248 2.92283e-18 3.2878)
(5.06184 6.80576e-18 3.39376)
(4.17223 -7.02769e-19 3.49424)
(4.56217 -7.33042e-18 3.63913)
(3.58507 -3.91272e-18 3.66951)
(4.00927 1.13656e-17 3.8659)
(2.92927 0 3.79726)
(3.39067 -1.56325e-17 4.05942)
(2.19228 3.03593e-19 3.85942)
(2.70018 8.27229e-18 4.20088)
(1.36496 -5.37134e-20 3.82215)
(1.9006 2.08415e-20 4.27111)
(1.05467 -1.05662e-17 4.20794)
(9.98248 6.22554e-20 0.119623)
(9.99926 -2.97185e-20 0.0841851)
(9.94818 4.25634e-20 0.196804)
(9.9724 9.03083e-20 0.166111)
(9.89732 -4.50374e-20 0.273479)
(9.92842 -4.57214e-20 0.246822)
(9.83035 1.33041e-19 0.351438)
(9.87014 1.39355e-19 0.328059)
(9.74778 2.47642e-21 0.432159)
(9.79716 1.67657e-21 0.411533)
(9.64995 -1.23096e-19 0.516778)
(9.70915 -1.30925e-19 0.49857)
(9.53701 0 0.606296)
(9.60624 2.62588e-19 0.590216)
(9.40902 0 0.701735)
(9.48863 -2.49471e-19 0.687494)
(9.26592 0 0.804147)
(9.35648 3.40368e-20 0.791494)
(9.10751 0 0.914595)
(9.20962 -5.26083e-19 0.903343)
(8.93348 0 1.03414)
(9.04774 4.9747e-19 1.02415)
(8.74352 -6.22895e-19 1.16381)
(8.87062 7.28817e-20 1.15499)
(8.53721 -1.25378e-18 1.30468)
(8.67793 -4.64872e-19 1.29696)
(8.31408 7.53244e-19 1.45778)
(8.46923 -7.1558e-19 1.45119)
(8.07361 2.87013e-18 1.62415)
(8.24404 1.3658e-18 1.61877)
(7.81514 1.32714e-18 1.8047)
(8.00176 1.50347e-18 1.80079)
(7.53787 4.34551e-20 2.0002)
(7.74164 -1.32012e-18 1.99821)
(7.24079 -4.22258e-18 2.21114)
(7.46279 1.54564e-18 2.21183)
(6.92255 1.93738e-18 2.43762)
(7.16395 -7.16561e-18 2.44221)
(6.58131 2.35008e-19 2.67919)
(6.84338 8.83727e-18 2.68945)
(6.21444 -2.0994e-18 2.93455)
(6.49877 -8.92705e-18 2.95317)
(5.81819 1.0099e-18 3.20116)
(6.12689 6.58283e-18 3.23212)
(5.38732 4.88488e-18 3.47482)
(5.72302 2.49551e-19 3.52374)
(4.91478 -3.60739e-18 3.74916)
(5.28076 4.06085e-18 3.82371)
(4.39139 4.94e-18 4.01508)
(4.79158 -3.57655e-18 4.12539)
(3.80591 -6.26184e-19 4.26004)
(4.24487 8.44256e-18 4.41893)
(3.14555 -7.15047e-18 4.46758)
(3.62653 -1.56371e-17 4.69037)
(2.39677 7.92403e-18 4.61588)
(2.92738 8.27034e-18 4.91985)
(1.5513 -1.06752e-17 4.66075)
(2.11956 7.95546e-18 5.07913)
(1.20836 -1.88719e-17 5.09904)
(9.98292 0 0.131722)
(9.99953 -5.88666e-20 0.0920741)
(9.94971 0 0.217164)
(9.97343 2.97569e-20 0.181919)
(9.9008 1.41437e-19 0.30239)
(9.93103 -3.01711e-20 0.27082)
(9.83661 5.9436e-21 0.389158)
(9.87522 1.24007e-19 0.360519)
(9.75759 -1.33682e-19 0.478981)
(9.80553 -1.29476e-19 0.452712)
(9.66406 2.60467e-19 0.573073)
(9.72164 -4.02491e-21 0.548776)
(9.55628 5.83465e-21 0.672506)
(9.62372 -5.3704e-21 0.649819)
(9.43434 -2.11472e-19 0.778391)
(9.51199 -2.89891e-21 0.756942)
(9.29819 -4.99935e-19 0.891894)
(9.38661 -3.33155e-20 0.871361)
(9.14762 -1.45033e-20 1.01418)
(9.2474 -1.11343e-18 0.994316)
(8.98239 5.64673e-19 1.14637)
(9.09417 1.12777e-18 1.12697)
(8.80226 2.23757e-19 1.2896)
(8.92674 8.90068e-22 1.27047)
(8.60688 7.03053e-20 1.44503)
(8.74486 -1.10378e-18 1.42602)
(8.39581 -7.54833e-20 1.61386)
(8.54816 1.19366e-18 1.59486)
(8.1685 0 1.79724)
(8.33615 1.23395e-18 1.77826)
(7.92427 -1.18137e-18 1.99628)
(8.10824 -1.24949e-18 1.97746)
(7.66226 2.18615e-19 2.21201)
(7.86367 -2.45739e-18 2.19365)
(7.38133 -1.50622e-18 2.44529)
(7.60142 1.84636e-19 2.42798)
(7.07988 -6.7637e-20 2.69667)
(7.32014 -1.352e-19 2.68144)
(6.75573 -5.42481e-19 2.96634)
(7.01779 2.84471e-18 2.95473)
(6.40593 -5.83893e-20 3.25398)
(6.69172 -3.26311e-19 3.24824)
(6.0262 5.74998e-18 3.5583)
(6.3384 3.03893e-18 3.56195)
(5.61061 -5.31306e-19 3.87665)
(5.95259 1.72204e-19 3.89482)
(5.15115 4.00708e-18 4.20444)
(5.52709 -9.63003e-18 4.24437)
(4.63745 5.73914e-20 4.53432)
(5.05227 1.95003e-17 4.60599)
(4.05668 -6.81749e-18 4.85502)
(4.51592 -1.96823e-17 4.97172)
(3.39414 0 5.14985)
(3.90189 1.30603e-17 5.32863)
(2.63325 8.30338e-18 5.39226)
(3.19532 -6.70935e-18 5.65634)
(1.76286 -7.66335e-19 5.52765)
(2.37881 8.00225e-18 5.91633)
(1.39142 -8.65438e-18 6.03691)
(9.98355 -2.78895e-20 0.143404)
(9.99988 -8.80356e-20 0.099671)
(9.9517 -1.31294e-21 0.236725)
(9.97472 2.9763e-20 0.197087)
(9.905 -4.53317e-20 0.330063)
(9.93415 1.20346e-19 0.29375)
(9.84385 -1.51516e-20 0.425195)
(9.88107 -1.21892e-19 0.391464)
(9.7687 2.01893e-21 0.52365)
(9.81494 2.48486e-19 0.491905)
(9.67994 -2.69935e-19 0.626688)
(9.73559 -2.49319e-19 0.596462)
(9.57786 -1.41043e-20 0.73546)
(9.64315 -5.17341e-19 0.706317)
(9.46254 1.74914e-19 0.851184)
(9.53779 2.44898e-19 0.82269)
(9.33389 -6.61822e-19 0.975131)
(9.41965 2.3099e-19 0.94691)
(9.19179 5.95854e-20 1.10854)
(9.28865 -4.29311e-20 1.08027)
(9.03612 5.48703e-19 1.25259)
(9.14477 -5.0991e-19 1.22399)
(8.86667 -1.34178e-18 1.40849)
(8.98785 5.59608e-19 1.37927)
(8.68319 4.97732e-20 1.57755)
(8.81769 -2.40968e-18 1.54743)
(8.48528 2.50446e-18 1.76108)
(8.63398 2.43894e-18 1.72985)
(8.2724 -4.72978e-20 1.96043)
(8.4363 1.23481e-18 1.92796)
(8.04387 -2.54156e-18 2.17693)
(8.2241 1.26841e-19 2.1432)
(7.79879 -2.45939e-18 2.41189)
(7.99663 -2.5301e-18 2.37703)
(7.53591 1.55174e-18 2.6666)
(7.75282 -1.32971e-18 2.63093)
(7.25348 2.81559e-18 2.94219)
(7.49126 2.67638e-18 2.90647)
(6.94903 3.0239e-18 3.23956)
(7.20987 4.97316e-21 3.20503)
(6.61928 2.81335e-18 3.55942)
(6.90564 2.82428e-18 3.52784)
(6.25963 -2.57562e-18 3.90203)
(6.57476 -2.70905e-18 3.87617)
(5.86354 -9.0406e-18 4.26656)
(6.21174 -1.57226e-19 4.25085)
(5.42212 6.17948e-18 4.65061)
(5.80871 -6.07684e-18 4.65162)
(4.92356 -6.55898e-19 5.04909)
(5.35494 1.24153e-17 5.0765)
(4.35278 5.42902e-19 5.45258)
(4.83623 -1.28033e-17 5.5203)
(3.69177 6.1528e-18 5.84485)
(4.23362 1.93014e-17 5.97216)
(2.91882 -6.87545e-18 6.19482)
(3.52346 -1.92122e-17 6.41253)
(2.01742 -2.23628e-19 6.43837)
(2.69831 6.52507e-18 6.79208)
(1.61662 0 7.04068)
(9.98433 -2.8747e-20 0.154572)
(10.0003 5.84966e-20 0.106911)
(9.95405 1.52794e-19 0.25537)
(9.9762 -2.94481e-20 0.211512)
(9.90978 4.02037e-20 0.356377)
(9.93768 2.70239e-19 0.315504)
(9.85193 1.47183e-19 0.459398)
(9.88756 -2.42601e-19 0.420763)
(9.78101 -1.00654e-20 0.565954)
(9.82533 2.06219e-21 0.528921)
(9.69747 -5.00591e-19 0.677362)
(9.75089 5.49263e-21 0.641388)
(9.60153 -2.47626e-19 0.794878)
(9.6643 -5.0588e-19 0.759472)
(9.49323 3.00775e-19 0.91982)
(9.56567 -2.62435e-19 0.884503)
(9.37256 8.46363e-19 1.05352)
(9.4552 8.05386e-19 1.01786)
(9.23955 -6.18786e-19 1.19726)
(9.333 5.4467e-19 1.16085)
(9.09418 -4.85036e-19 1.35229)
(9.19913 -1.10669e-18 1.31474)
(8.93629 -5.47415e-19 1.51991)
(9.05349 5.62548e-19 1.48083)
(8.76565 4.27638e-20 1.70154)
(8.89591 -1.08592e-18 1.66056)
(8.58194 1.15341e-18 1.89865)
(8.72613 1.78993e-20 1.85544)
(8.38469 1.39517e-18 2.11277)
(8.54385 -9.35384e-21 2.06702)
(8.17329 1.06719e-19 2.34547)
(8.34863 2.48379e-18 2.29697)
(7.94684 -1.38547e-18 2.59839)
(8.13978 -2.4486e-18 2.54703)
(7.7041 -1.57635e-19 2.87327)
(7.91628 1.05905e-18 2.81907)
(7.44334 -1.67621e-19 3.17194)
(7.67678 0 3.11517)
(7.16197 -1.6384e-19 3.4961)
(7.41939 -3.21649e-19 3.43758)
(6.85643 -2.76296e-18 3.84757)
(7.14104 -1.57653e-19 3.78849)
(6.52191 -2.63067e-19 4.22826)
(6.83767 -5.15652e-18 4.17049)
(6.15156 2.75099e-18 4.63962)
(6.50375 5.01717e-18 4.58645)
(5.73565 3.53221e-19 5.08199)
(6.13113 1.95169e-19 5.0389)
(5.26087 0 5.55357)
(5.70818 5.30553e-18 5.52935)
(4.70916 6.2998e-18 6.04815)
(5.21861 -5.37389e-18 6.05691)
(4.05744 -6.47578e-18 6.55169)
(4.63991 8.11829e-19 6.61499)
(3.27552 -5.55256e-18 7.02986)
(3.93598 -7.02894e-18 7.18779)
(2.33656 6.60461e-18 7.40973)
(3.10541 6.57226e-18 7.71665)
(1.90358 0 8.13514)
(9.9852 5.65941e-20 0.165155)
(10.0007 1.16562e-19 0.113749)
(9.95667 9.24777e-20 0.273002)
(9.97783 -1.68613e-22 0.225116)
(9.91503 -2.01672e-20 0.381211)
(9.94152 1.19711e-19 0.335976)
(9.86078 -3.84203e-19 0.491603)
(9.8946 -1.55765e-20 0.448269)
(9.79443 1.76527e-20 0.605696)
(9.83661 -3.68227e-19 0.563585)
(9.71642 -6.98202e-21 0.724886)
(9.76736 2.49184e-19 0.683386)
(9.62692 -5.17325e-19 0.850544)
(9.68686 -2.56631e-19 0.809114)
(9.52603 2.56922e-19 0.984046)
(9.59531 -7.80327e-19 0.942165)
(9.41387 5.00088e-19 1.12674)
(9.49296 5.20005e-19 1.08391)
(9.29058 3.45638e-20 1.27995)
(9.38013 2.9239e-20 1.23566)
(9.1562 -3.67156e-20 1.44499)
(9.25688 5.67012e-19 1.39877)
(9.01063 2.47823e-21 1.62329)
(9.12314 -6.94693e-20 1.57466)
(8.85369 -1.09673e-18 1.81637)
(8.97885 8.80987e-22 1.76487)
(8.68513 -1.14631e-18 2.02582)
(8.82385 -1.22121e-18 1.97097)
(8.50465 1.11009e-18 2.25335)
(8.65798 -9.36067e-21 2.19466)
(8.31172 -1.31719e-19 2.50077)
(8.48092 1.03387e-18 2.4378)
(8.10558 3.8142e-20 2.77006)
(8.29214 -1.21012e-18 2.70242)
(7.8851 1.20524e-18 3.06341)
(8.09082 -1.0733e-18 2.99076)
(7.64871 -1.57684e-19 3.38333)
(7.87578 2.23044e-18 3.30539)
(7.39408 -3.13712e-19 3.73254)
(7.64541 -4.31255e-21 3.64937)
(7.11766 -2.60478e-18 4.11404)
(7.39715 -4.89218e-21 4.02608)
(6.81455 2.28964e-19 4.53142)
(7.12703 6.77928e-21 4.43948)
(6.47791 2.41193e-18 4.98875)
(6.82973 2.45083e-18 4.89453)
(6.09771 5.2015e-18 5.48991)
(6.4975 -2.52816e-18 5.39701)
(5.65933 -1.73973e-19 6.03777)
(6.11857 4.53523e-19 5.95299)
(5.14155 -1.08066e-17 6.63192)
(5.67518 -4.99123e-19 6.56799)
(4.51434 1.79875e-19 7.26439)
(5.14143 -5.43183e-18 7.24364)
(3.73372 5.23073e-18 7.90235)
(4.46563 5.33203e-18 7.97464)
(2.74983 -1.74841e-19 8.46753)
(3.64377 -1.36304e-19 8.70198)
(2.28905 0 9.37191)
(9.98616 5.81444e-20 0.175096)
(10.0012 -8.66412e-20 0.120147)
(9.9595 2.88516e-20 0.289535)
(9.97958 8.74683e-20 0.237833)
(9.92071 1.22312e-19 0.404442)
(9.94561 -5.88431e-20 0.355067)
(9.87031 -4.71333e-21 0.521661)
(9.90215 1.20547e-19 0.473845)
(9.80878 -1.27815e-19 0.64272)
(9.84865 -1.51877e-19 0.595761)
(9.73653 -7.63149e-21 0.769104)
(9.78477 -7.75228e-21 0.722331)
(9.65377 -5.26926e-19 0.902269)
(9.7106 -2.54994e-19 0.855082)
(9.56069 -4.99501e-19 1.04361)
(9.62645 -7.66071e-19 0.995441)
(9.45753 4.23633e-20 1.19446)
(9.53269 5.22755e-19 1.14475)
(9.34451 5.68947e-19 1.3562)
(9.42967 5.16924e-19 1.30437)
(9.22167 5.26044e-19 1.53026)
(9.31749 8.88883e-21 1.47575)
(9.08899 -7.01592e-20 1.71815)
(9.19614 -5.34811e-19 1.66039)
(8.94645 -1.38922e-19 1.92147)
(9.06573 -6.14581e-19 1.85987)
(8.79393 -6.87868e-20 2.1419)
(8.92625 1.08975e-18 2.07585)
(8.63126 -7.33079e-20 2.3813)
(8.77766 0 2.31014)
(8.45809 -7.15718e-20 2.64173)
(8.61983 -7.24584e-20 2.56476)
(8.27388 -2.32076e-18 2.92546)
(8.45246 -7.00967e-20 2.84199)
(8.07777 -1.24517e-20 3.23512)
(8.27504 -1.22637e-18 3.14438)
(7.86847 2.36083e-18 3.57381)
(8.08675 1.16264e-18 3.47498)
(7.64413 3.04823e-19 3.94523)
(7.88638 2.23051e-19 3.83746)
(7.40177 2.60952e-18 4.35374)
(7.67215 1.53124e-19 4.23636)
(7.13699 2.2563e-18 4.80465)
(7.44095 2.21842e-18 4.67711)
(6.84346 -2.54041e-18 5.30473)
(7.18836 -7.82743e-21 5.16668)
(6.51175 -7.2546e-18 5.86209)
(6.90791 -2.29733e-18 5.71418)
(6.12714 1.1209e-19 6.48595)
(6.58934 -4.8667e-18 6.33105)
(5.66632 4.83683e-18 7.18531)
(6.21574 4.88867e-18 7.03154)
(5.09193 -1.52636e-19 7.96604)
(5.76077 0 7.83122)
(4.34052 -1.05457e-19 8.81071)
(5.15882 -8.39681e-20 8.7482)
(3.31643 4.19284e-20 9.65788)
(4.39534 3.95707e-18 9.75084)
(2.85465 -7.85858e-18 10.8565)
(9.98718 -5.49005e-20 0.184347)
(10.0017 -5.79689e-20 0.126073)
(9.96252 -2.41672e-21 0.304892)
(9.98145 1.00137e-22 0.249604)
(9.92675 -5.79826e-20 0.425964)
(9.94996 -5.85902e-20 0.372693)
(9.88038 -3.06044e-20 0.549448)
(9.91009 1.48312e-19 0.497396)
(9.82388 -2.97345e-20 0.676908)
(9.86123 -1.19844e-19 0.62535)
(9.75761 -2.58624e-19 0.809881)
(9.80292 0 0.758104)
(9.68187 -5.01247e-19 0.949865)
(9.73533 -2.47377e-19 0.897214)
(9.59697 2.73935e-19 1.09825)
(9.65888 -2.46353e-19 1.04412)
(9.50321 9.97413e-19 1.2564)
(9.57404 7.99216e-21 1.20016)
(9.40081 -4.99298e-20 1.42575)
(9.48114 4.85107e-19 1.36676)
(9.28991 -1.05948e-18 1.60779)
(9.38034 4.93953e-19 1.54542)
(9.17063 -1.08059e-18 1.80411)
(9.2718 -1.05704e-18 1.73769)
(9.04309 6.35506e-19 2.01634)
(9.15575 -5.12697e-19 1.94517)
(8.90733 1.14562e-18 2.24626)
(9.03235 1.16016e-18 2.16958)
(8.76336 0 2.49585)
(8.90175 -3.35212e-20 2.41282)
(8.61108 -7.09437e-20 2.76733)
(8.76401 0 2.67703)
(8.45024 1.01231e-18 3.06324)
(8.61916 -1.09752e-18 2.96463)
(8.28037 -2.43885e-20 3.38656)
(8.46708 2.20201e-18 3.27846)
(8.10068 -9.87419e-19 3.74088)
(8.30744 -3.17164e-18 3.62188)
(7.90996 7.04956e-20 4.13068)
(8.13969 2.20353e-18 3.99908)
(7.70628 -2.18771e-19 4.56152)
(7.96297 -2.22269e-18 4.41535)
(7.48652 -6.80981e-20 5.04041)
(7.77568 -1.35763e-19 4.87737)
(7.24596 2.1648e-19 5.57666)
(7.5753 2.30752e-18 5.39386)
(6.97725 7.13865e-20 6.18267)
(7.35797 7.20736e-20 5.97673)
(6.66822 0 6.87502)
(7.11747 0 6.64253)
(6.29755 0 7.67583)
(6.8425 -1.19602e-19 7.41494)
(5.82575 6.76757e-20 8.61582)
(6.51534 1.91697e-18 8.32823)
(5.17242 4.03508e-18 9.72429)
(6.0739 -3.34984e-18 9.44113)
(4.17388 -4.33232e-18 11.0531)
(5.52067 5.51833e-18 10.8102)
(3.7771 -1.03538e-17 12.7839)
(9.98826 -2.13878e-21 0.192866)
(10.0022 3.18232e-20 0.131502)
(9.96572 -5.69573e-20 0.319011)
(9.9834 -8.64156e-20 0.260377)
(9.93308 1.50775e-19 0.445701)
(9.95451 -5.48415e-20 0.388794)
(9.89087 5.51776e-20 0.574878)
(9.91837 2.89964e-19 0.518863)
(9.83954 -8.841e-20 0.708144)
(9.87427 1.34324e-19 0.652274)
(9.77945 7.81652e-21 0.847059)
(9.82171 2.93016e-20 0.790593)
(9.711 7.60256e-21 0.993128)
(9.76093 2.32031e-20 0.935372)
(9.63454 -5.08954e-19 1.14775)
(9.69247 -2.47384e-19 1.08805)
(9.55042 -4.98269e-19 1.31231)
(9.61681 -5.15368e-19 1.25001)
(9.45891 1.02926e-18 1.48829)
(9.5343 -4.68236e-21 1.42268)
(9.36028 4.76856e-19 1.67724)
(9.44523 1.06075e-18 1.6076)
(9.25479 -4.82158e-19 1.88075)
(9.3499 -5.3203e-19 1.80632)
(9.1427 3.25129e-20 2.10048)
(9.24868 9.89574e-19 2.02048)
(9.02425 -3.39378e-20 2.33829)
(9.14191 -9.75691e-19 2.25181)
(8.89965 -3.31371e-20 2.59621)
(9.02993 -2.71276e-21 2.50225)
(8.7691 -1.03959e-18 2.87658)
(8.9131 1.00708e-18 2.774)
(8.63272 1.28504e-19 3.18211)
(8.79175 -2.05601e-18 3.06957)
(8.49053 -1.00382e-18 3.516)
(8.66624 1.10674e-18 3.39192)
(8.34242 7.53008e-20 3.88219)
(8.53688 -2.17372e-18 3.74459)
(8.18807 -1.34314e-19 4.28561)
(8.40394 1.68611e-19 4.13201)
(8.0269 -2.12202e-18 4.73263)
(8.26772 -2.38492e-19 4.55983)
(7.85782 2.26206e-18 5.23147)
(8.12848 8.25758e-20 5.03536)
(7.67892 2.14394e-18 5.79328)
(7.9864 4.04745e-18 5.5682)
(7.4871 0 6.43366)
(7.84169 -1.9432e-18 6.17168)
(7.27682 -1.2071e-19 7.1754)
(7.69489 -1.76183e-18 6.86505)
(7.03721 1.81623e-18 8.05337)
(7.54656 3.3588e-18 7.67766)
(6.74425 -1.54456e-18 9.12825)
(7.4032 1.73231e-18 8.65748)
(6.33545 -1.76261e-18 10.5138)
(7.25555 -5.52657e-18 9.90243)
(5.63072 -7.71572e-19 12.7568)
(7.39418 2.48904e-18 11.6144)
(6.73342 -2.54215e-18 15.4857)
(0.0889701 9.78868e-22 -0.057627)
(0.0304531 -6.58708e-20 -0.0849099)
(0.24554 1.0101e-21 -0.0830631)
(0.175521 -1.27061e-24 -0.142673)
(0.414018 0 -0.0813025)
(0.335367 1.76274e-21 -0.147052)
(0.567459 0 -0.0682164)
(0.489805 0 -0.129044)
(0.695586 -4.18656e-23 -0.0521299)
(0.627229 4.57356e-20 -0.104378)
(0.795817 -4.29295e-23 -0.0364962)
(0.741344 -4.42476e-20 -0.0794615)
(0.868929 -8.76492e-21 -0.0226576)
(0.830487 3.85657e-20 -0.0566246)
(0.917684 -3.72468e-22 -0.0111233)
(0.896095 -4.70391e-20 -0.0369973)
(0.945768 8.74556e-21 -0.00193015)
(0.941351 2.49109e-20 -0.0209175)
(0.956833 -9.14547e-22 0.00497894)
(0.969895 -1.59392e-20 -0.00808316)
(0.955442 -1.79968e-21 0.00922238)
(0.985024 -1.27399e-24 0.00104015)
(0.945477 -8.84259e-22 0.0110235)
(0.990285 3.33922e-25 0.00712462)
(0.931731 -3.17528e-21 0.0114585)
(0.989655 0 0.00966911)
(0.916048 -1.1611e-22 0.0111149)
(0.985713 -3.20212e-21 0.0108626)
(0.899506 3.18209e-21 0.00986803)
(0.978735 -2.95939e-21 0.0112803)
(0.884855 -2.16313e-21 0.00752327)
(0.969716 6.01552e-21 0.00983766)
(0.875434 1.28336e-21 0.00436164)
(0.961819 -1.46009e-21 0.00624005)
(0.871736 2.87166e-21 0.00142343)
(0.957833 4.23707e-21 0.00243724)
(0.87048 -7.001e-22 -0.000115687)
(0.957722 -1.36194e-21 0.000844708)
(0.869355 1.54688e-23 -0.000754746)
(0.957783 -1.2832e-21 0.000749116)
(0.869246 2.93357e-22 -0.00177278)
(0.955623 5.96032e-22 0.000109639)
(0.874753 2.78121e-22 -0.0037111)
(0.953762 1.93649e-21 -0.00329058)
(0.890571 -2.66143e-22 -0.00640386)
(0.956761 -1.10365e-21 -0.00936547)
(0.917812 1.62834e-22 -0.00919739)
(0.967826 1.15257e-21 -0.0158849)
(0.953912 7.69163e-22 -0.0119327)
(0.987471 -4.3798e-22 -0.0207107)
(0.996279 7.64555e-23 -0.0151028)
(1.0126 1.65936e-24 -0.0239092)
(1.0447 -2.82823e-22 -0.0188276)
(1.04023 -5.64983e-22 -0.0268802)
(1.09983 2.48288e-22 -0.0222748)
(1.07117 0 -0.0301162)
(1.16155 2.54035e-22 -0.0239958)
(1.10777 4.70673e-24 -0.0331726)
(1.16663 5.41848e-24 -0.0331248)
(0.112643 -6.76387e-20 -0.174483)
(0.0329464 -6.79027e-20 -0.20168)
(0.263891 7.4002e-22 -0.217803)
(0.182232 -9.68179e-22 -0.281617)
(0.417218 1.7938e-21 -0.208201)
(0.323554 1.71005e-23 -0.280586)
(0.557943 4.50285e-20 -0.177859)
(0.456164 -1.56508e-21 -0.246622)
(0.679224 1.55576e-21 -0.142186)
(0.573807 9.26013e-22 -0.202363)
(0.779144 -6.59596e-21 -0.107682)
(0.673091 -6.08786e-22 -0.157989)
(0.858195 9.89456e-22 -0.0769865)