/*--------------------------------*- C++ -*----------------------------------*\
| =========                 |                                                 |
| \\      /  F ield         | OpenFOAM: The Open Source CFD Toolbox           |
|  \\    /   O peration     | Version:  2006                                  |
|   \\  /    A nd           | Website:  www.openfoam.com                      |
|    \\/     M anipulation  |                                                 |
\*---------------------------------------------------------------------------*/
FoamFile
{
    version     2.0;
    format      ascii;
    class       volScalarField;
    location    "5.2";
    object      p;
}
// * * * * * * * * * * * * * * * * * * * * * * * * * * * * * * * * * * * * * //

dimensions      [0 2 -2 0 0 0 0];


internalField   nonuniform List<scalar> 
2790
(
146.997
146.905
147.172
147.743
148.523
149.48
150.613
151.919
153.396
155.037
156.836
158.787
160.881
163.106
165.446
167.882
170.386
172.925
175.457
177.931
180.29
182.467
184.398
186.018
187.278
188.152
188.588
188.644
188.695
188.907
146.795
146.812
147.105
147.673
148.449
149.403
150.531
151.832
153.301
154.933
156.723
158.664
160.747
162.961
165.29
167.716
170.212
172.745
175.275
177.753
180.122
182.317
184.271
185.92
187.204
188.079
188.476
188.53
188.663
188.947
146.596
146.684
146.995
147.553
148.316
149.257
150.37
151.653
153.101
154.708
156.471
158.38
160.428
162.603
164.892
167.274
169.726
172.217
174.708
177.156
179.506
181.698
183.671
185.36
186.711
187.687
188.28
188.636
188.951
189.25
146.371
146.489
146.813
147.363
148.111
149.036
150.129
151.388
152.807
154.381
156.105
157.97
159.969
162.089
164.318
166.635
169.02
171.443
173.87
176.261
178.568
180.74
182.721
184.461
185.915
187.067
187.936
188.606
189.159
189.678
146.11
146.243
146.575
147.117
147.849
148.753
149.82
151.047
152.429
153.96
155.635
157.444
159.379
161.43
163.582
165.818
168.116
170.451
172.792
175.105
177.351
179.486
181.468
183.259
184.829
186.171
187.302
188.264
189.075
189.822
145.809
145.948
146.282
146.814
147.526
148.404
149.44
150.629
151.966
153.446
155.061
156.804
158.665
160.632
162.694
164.832
167.027
169.256
171.493
173.708
175.871
177.948
179.91
181.731
183.394
184.896
186.242
187.448
188.468
189.386
145.467
145.606
145.938
146.456
147.146
147.993
148.992
150.138
151.424
152.844
154.391
156.056
157.831
159.704
161.661
163.687
165.763
167.869
169.981
172.077
174.133
176.124
178.031
179.842
181.547
183.148
184.642
186.021
187.186
188.232
145.082
145.219
145.544
146.046
146.709
147.523
148.481
149.576
150.804
152.157
153.627
155.207
156.885
158.651
160.491
162.39
164.331
166.296
168.263
170.215
172.133
174
175.807
177.549
179.228
180.847
182.402
183.874
185.124
186.274
144.656
144.789
145.103
145.586
146.22
146.996
147.908
148.948
150.112
151.39
152.777
154.261
155.833
157.481
159.192
160.951
162.74
164.543
166.343
168.122
169.865
171.563
173.211
174.811
176.373
177.908
179.417
180.887
182.158
183.397
144.19
144.317
144.618
145.078
145.681
146.416
147.277
148.258
149.351
150.55
151.845
153.226
154.683
156.203
157.773
159.376
160.998
162.62
164.226
165.8
167.328
168.802
170.22
171.588
172.921
174.24
175.56
176.898
178.099
179.403
143.684
143.806
144.091
144.527
145.095
145.785
146.592
147.509
148.528
149.641
150.838
152.109
153.442
154.825
156.242
157.678
159.116
160.537
161.924
163.258
164.526
165.716
166.823
167.851
168.815
169.744
170.675
171.673
172.636
173.954
143.142
143.257
143.525
143.933
144.464
145.108
145.857
146.706
147.647
148.669
149.763
150.918
152.121
153.357
154.613
155.869
157.108
158.309
159.451
160.513
161.474
162.317
163.025
163.591
164.017
164.327
164.57
164.879
165.261
166.434
142.565
142.672
142.922
143.301
143.793
144.387
145.077
145.855
146.713
147.641
148.627
149.66
150.727
151.811
152.896
153.963
154.99
155.954
156.829
157.588
158.201
158.635
158.857
158.832
158.529
157.932
157.058
156.066
155.119
155.624
141.956
142.054
142.285
142.634
143.085
143.628
144.255
144.96
145.733
146.563
147.438
148.346
149.272
150.198
151.107
151.976
152.781
153.495
154.086
154.518
154.748
154.725
154.386
153.654
152.432
150.603
148.041
144.74
140.794
138.761
141.317
141.407
141.616
141.934
142.343
142.833
143.397
144.026
144.712
145.442
146.203
146.983
147.765
148.53
149.258
149.925
150.502
150.958
151.255
151.345
151.172
150.661
149.716
148.201
145.923
142.591
137.749
130.735
120.278
108.064
1.11539
1.09721
1.03442
0.947943
0.858225
0.774881
0.700668
0.635536
0.578521
0.528358
0.483717
0.443341
0.406126
0.371138
0.337619
0.304989
0.272864
0.241085
0.209742
0.179177
0.149915
0.122547
0.0975485
0.0752001
0.0558827
0.0394543
0.025818
0.0149438
0.00677779
0.000548021
1.07161
1.05083
0.991592
0.911938
0.829541
0.752604
0.683581
0.622549
0.568722
0.521006
0.478229
0.439271
0.403127
0.368933
0.335971
0.303691
0.271723
0.239927
0.208426
0.17762
0.148123
0.120617
0.0956999
0.073763
0.0546639
0.0383534
0.0248385
0.0141393
0.00638559
0.001894
1.02337
0.998338
0.941288
0.868163
0.793748
0.724173
0.661314
0.605285
0.555431
0.510808
0.470416
0.433287
0.398536
0.365385
0.333175
0.301387
0.269674
0.237916
0.206283
0.175256
0.145557
0.117975
0.0931348
0.0713265
0.0524204
0.0362299
0.0226167
0.0119661
0.00496856
0.00216995
0.977264
0.947923
0.892418
0.824991
0.75806
0.69548
0.638539
0.587373
0.541433
0.499896
0.461911
0.426651
0.393342
0.36129
0.329896
0.298677
0.267309
0.235692
0.204031
0.172875
0.14304
0.1154
0.0906258
0.0689909
0.0503407
0.0343886
0.020985
0.0105046
0.00354191
0.000571696
0.94592
0.912378
0.858412
0.795215
0.733823
0.676178
0.623304
0.575388
0.532052
0.492575
0.456203
0.422195
0.389849
0.358529
0.327679
0.296845
0.265725
0.234233
0.202602
0.171425
0.141575
0.113964
0.0892665
0.0677534
0.0492509
0.0334816
0.0202304
0.00994842
0.00367986
0.000478556
0.940588
0.901845
0.848828
0.787096
0.727723
0.671561
0.619791
0.572721
0.529893
0.490813
0.45475
0.420977
0.388801
0.357597
0.326824
0.296044
0.264975
0.233553
0.202023
0.170981
0.141289
0.113816
0.089189
0.0677086
0.0492335
0.0335933
0.0207132
0.0104304
0.00338905
0.000259277
0.97131
0.924895
0.869417
0.804241
0.741353
0.682136
0.627853
0.578733
0.534291
0.49392
0.456832
0.422243
0.38942
0.357713
0.326568
0.295557
0.264424
0.233124
0.201877
0.171206
0.141878
0.114693
0.0901892
0.0687597
0.0503133
0.0344089
0.0210337
0.0104769
0.00318441
0.000202168
1.0439
0.986065
0.91942
0.843461
0.770847
0.70395
0.64363
0.589766
0.541799
0.498839
0.459842
0.423838
0.389961
0.357473
0.325756
0.294394
0.263206
0.232202
0.201556
0.171628
0.142962
0.116216
0.0917108
0.0698156
0.0509745
0.0351259
0.0217349
0.0105784
0.00264439
7.78357e-05
1.15813
1.07724
0.989244
0.89445
0.806672
0.729205
0.661618
0.602081
0.549453
0.503015
0.461507
0.423747
0.388709
0.355459
0.323258
0.291682
0.260644
0.23027
0.200678
0.171892
0.14396
0.117199
0.0924804
0.070472
0.0515604
0.0357339
0.0222534
0.0105356
0.00204402
-5.58752e-05
1.29191
1.17644
1.06057
0.945358
0.839899
0.747759
0.669931
0.605004
0.550002
0.502143
0.459621
0.421136
0.385643
0.352108
0.319635
0.28781
0.256814
0.227076
0.19874
0.171446
0.144687
0.118362
0.0932492
0.0706038
0.0514225
0.0357369
0.0223647
0.0103019
0.00146739
-0.000163589
1.39954
1.25563
1.10921
0.969982
0.850365
0.750614
0.66796
0.599833
0.543308
0.495041
0.452435
0.414016
0.378853
0.345793
0.313596
0.281781
0.250998
0.222274
0.195836
0.170695
0.145432
0.119407
0.0935022
0.0697667
0.0501146
0.0347817
0.0219494
0.00996675
0.00105339
-0.000213286
1.48037
1.28809
1.11318
0.955948
0.826965
0.724772
0.643315
0.577768
0.52446
0.47925
0.438733
0.401678
0.36792
0.336355
0.305059
0.273274
0.242479
0.214952
0.19128
0.169441
0.146414
0.120609
0.0931911
0.0675458
0.047083
0.0324678
0.0209101
0.00962671
0.000888115
-0.000177465
1.46884
1.20848
1.01605
0.864298
0.747945
0.660195
0.591263
0.535713
0.49158
0.454104
0.418283
0.383662
0.352323
0.323665
0.294233
0.262332
0.230821
0.204443
0.18471
0.167896
0.148204
0.122476
0.0923925
0.063496
0.0416479
0.0283441
0.0192371
0.00947362
0.0010609
-3.50162e-05
1.19016
0.877868
0.750434
0.667947
0.597354
0.549553
0.510113
0.472955
0.444307
0.420425
0.392023
0.359818
0.331486
0.307931
0.282132
0.249691
0.215727
0.189828
0.17565
0.1666
0.151948
0.125971
0.0913588
0.0570571
0.0328563
0.0218009
0.0170263
0.00988059
0.0016975
0.000229233
0.471083
0.109884
0.222059
0.356407
0.370654
0.401391
0.41321
0.393904
0.381399
0.379994
0.363821
0.332067
0.305775
0.290241
0.270911
0.236445
0.195931
0.168438
0.162285
0.165768
0.159065
0.132351
0.0903905
0.0473911
0.019269
0.0119084
0.0145203
0.0115473
0.00299183
0.000619978
140.637
140.718
140.907
141.191
141.556
141.991
142.489
143.041
143.636
144.263
144.908
145.556
146.189
146.789
147.332
147.791
148.134
148.326
148.32
148.059
147.473
146.464
144.9
142.586
139.223
134.317
126.947
115.199
93.0453
33.2828
139.91
139.982
140.148
140.397
140.716
141.094
141.523
141.994
142.496
143.016
143.54
144.053
144.534
144.964
145.317
145.564
145.67
145.594
145.283
144.673
143.68
142.19
140.044
137.011
132.733
126.626
117.657
104.093
84.5681
56.1081
139.141
139.202
139.345
139.559
139.83
140.149
140.508
140.896
141.302
141.713
142.115
142.489
142.818
143.076
143.239
143.274
143.145
142.805
142.199
141.256
139.886
137.966
135.333
131.757
126.911
120.342
111.458
99.6202
85.3783
68.7423
138.33
138.381
138.5
138.677
138.9
139.159
139.446
139.75
140.059
140.361
140.639
140.876
141.05
141.139
141.114
140.943
140.585
139.994
139.112
137.866
136.165
133.891
130.893
126.974
121.887
115.338
107.032
96.6342
84.0826
68.9374
137.48
137.521
137.616
137.755
137.929
138.127
138.341
138.56
138.773
138.965
139.12
139.221
139.244
139.168
138.961
138.591
138.019
137.195
136.063
134.553
132.579
130.033
126.788
122.686
117.548
111.174
103.362
93.8714
82.5328
69.5535
136.594
136.624
136.694
136.796
136.92
137.057
137.198
137.334
137.45
137.534
137.568
137.535
137.413
137.176
136.797
136.241
135.47
134.438
133.088
131.358
129.168
126.43
123.037
118.869
113.798
107.688
100.417
91.8841
82.0811
71.4203
135.673
135.693
135.738
135.802
135.876
135.953
136.023
136.075
136.096
136.074
135.991
135.829
135.567
135.18
134.639
133.913
132.964
131.748
130.216
128.309
125.962
123.1
119.641
115.499
110.585
104.821
98.1532
90.5691
82.1127
73.1197
134.721
134.73
134.751
134.777
134.803
134.82
134.819
134.79
134.72
134.595
134.4
134.115
133.721
133.193
132.505
131.625
130.52
129.149
127.468
125.428
122.975
120.05
116.592
112.542
107.846
102.465
96.384
89.6242
82.2352
74.4891
133.741
133.74
133.737
133.727
133.705
133.663
133.594
133.486
133.327
133.104
132.802
132.403
131.886
131.23
130.408
129.394
128.155
126.657
124.862
122.728
120.214
117.274
113.867
109.954
105.506
100.508
94.9676
88.9176
82.4121
75.6785
132.738
132.727
132.7
132.655
132.586
132.488
132.353
132.169
131.926
131.611
131.209
130.703
130.074
129.302
128.364
127.234
125.884
124.285
122.406
120.214
117.676
114.76
111.438
107.69
103.501
98.8724
93.8226
88.3908
82.6298
76.7248
131.716
131.695
131.646
131.566
131.453
131.301
131.103
130.848
130.526
130.124
129.63
129.026
128.297
127.423
126.383
125.156
123.717
122.043
120.107
117.886
115.354
112.49
109.278
105.708
101.777
97.4958
92.8877
87.992
82.8567
77.6302
130.68
130.65
130.579
130.466
130.311
130.108
129.85
129.528
129.132
128.652
128.073
127.382
126.563
125.6
124.475
123.169
121.662
119.934
117.966
115.739
113.237
110.446
107.358
103.97
100.289
96.3283
92.1135
87.6808
83.0722
78.407
129.635
129.597
129.505
129.361
129.166
128.915
128.602
128.218
127.755
127.201
126.547
125.778
124.882
123.844
122.649
121.28
119.722
117.961
115.98
113.767
111.311
108.607
105.65
102.444
98.9979
95.3293
91.4625
87.4298
83.2671
79.0706
128.588
128.541
128.43
128.258
128.025
127.73
127.365
126.925
126.4
125.782
125.06
124.224
123.262
122.161
120.909
119.493
117.902
116.122
114.145
111.961
109.564
106.953
104.129
101.098
97.8716
94.4671
90.9072
87.2204
83.4369
79.6346
127.544
127.49
127.361
127.161
126.894
126.558
126.147
125.655
125.075
124.4
123.62
122.726
121.708
120.556
119.261
117.812
116.2
114.416
112.455
110.311
107.981
105.468
102.774
99.9089
96.8841
93.7165
90.4268
87.0394
83.5797
80.111
126.51
126.448
126.303
126.079
125.78
125.407
124.954
124.417
123.788
123.062
122.232
121.289
120.226
119.035
117.708
116.237
114.616
112.839
110.904
108.807
106.549
104.133
101.565
98.8548
96.0139
93.0581
90.0058
86.8779
83.6957
80.5109
125.492
125.424
125.264
125.017
124.691
124.284
123.794
123.216
122.545
121.776
120.903
119.921
118.822
117.6
116.251
114.768
113.148
111.387
109.484
107.439
105.254
102.934
100.485
97.9181
95.2438
92.4766
89.6327
86.7299
83.7862
80.8441
124.497
124.423
124.25
123.983
123.631
123.195
122.673
122.059
121.352
120.547
119.639
118.624
117.498
116.255
114.892
113.406
111.793
110.054
108.189
106.198
104.086
101.857
99.5205
97.0843
94.5598
91.96
89.2988
86.5915
83.8534
81.1193
123.532
123.454
123.268
122.984
122.61
122.149
121.597
120.954
120.216
119.381
118.445
117.405
116.258
115.001
113.631
112.148
110.549
108.837
107.011
105.075
103.033
100.892
98.6583
96.3412
93.951
91.4992
88.998
86.4606
83.8998
81.3446
122.606
122.523
122.327
122.027
121.634
121.15
120.575
119.906
119.143
118.283
117.325
116.266
115.104
113.839
112.469
110.993
109.413
107.729
105.945
104.063
102.089
100.028
97.889
95.6793
93.4087
91.0874
88.7261
86.3361
83.9284
81.527
121.725
121.638
121.433
121.12
120.71
120.207
119.611
118.922
118.138
117.258
116.283
115.21
114.04
112.772
111.405
109.941
108.382
106.728
104.984
103.154
101.243
99.2577
97.2042
95.0908
92.9261
90.7193
88.4799
86.2176
83.9419
81.6728
120.897
120.806
120.594
120.269
119.845
119.326
118.714
118.007
117.206
116.312
115.324
114.242
113.067
111.8
110.44
108.99
107.453
105.83
104.126
102.345
100.492
98.5742
96.5977
94.5698
92.4984
90.3917
88.258
86.106
83.9438
81.7881
120.13
120.037
119.817
119.483
119.047
118.515
117.888
117.168
116.354
115.448
114.452
113.365
112.188
110.924
109.574
108.139
106.624
105.031
103.364
101.629
99.8293
97.9724
96.0642
94.1115
92.1215
90.1015
88.0592
86.0018
83.9367
81.8779
119.433
119.337
119.112
118.769
118.322
117.779
117.141
116.41
115.587
114.673
113.671
112.581
111.406
110.147
108.807
107.389
105.895
104.33
102.698
101.004
99.252
97.449
95.6007
93.7134
91.7938
89.8484
87.884
85.9073
83.9247
81.948
118.814
118.715
118.484
118.134
117.679
117.127
116.48
115.74
114.909
113.99
112.984
111.894
110.721
109.469
108.14
106.737
105.264
103.725
102.124
100.466
98.7563
97.0002
95.2036
93.3722
91.5124
89.6301
87.7314
85.8224
83.9089
82.0006
118.282
118.181
117.944
117.586
117.124
116.565
115.911
115.165
114.329
113.406
112.399
111.309
110.141
108.895
107.577
106.188
104.734
103.218
101.644
100.018
98.3437
96.6274
94.8742
93.0898
91.2798
89.45
87.6058
85.7529
83.8965
82.0449
117.848
117.742
117.499
117.133
116.664
116.099
115.439
114.688
113.849
112.924
111.916
110.828
109.663
108.424
107.116
105.74
104.302
102.805
101.254
99.6538
98.0092
96.3253
94.6075
92.8609
91.091
89.303
87.5021
85.6935
83.882
82.0745
117.522
117.411
117.158
116.785
116.312
115.742
115.079
114.324
113.482
112.555
111.547
110.461
109.3
108.068
106.767
105.402
103.977
102.496
100.963
99.3836
97.7623
96.1039
94.4136
92.6965
90.9577
89.2022
87.435
85.6609
83.8846
82.1122
117.32
117.185
116.915
116.537
116.061
115.489
114.823
114.066
113.223
112.297
111.29
110.206
109.048
107.82
106.525
105.168
103.752
102.282
100.762
99.1969
97.5912
95.95
94.2782
92.5807
90.8624
89.1282
87.3829
85.631
83.8769
82.1256
117.301
117.102
116.804
116.42
115.941
115.365
114.697
113.938
113.094
112.168
111.162
110.079
108.924
107.7
106.41
105.058
103.649
102.187
100.675
99.1196
97.5243
95.8942
94.2342
92.549
90.8436
89.1226
87.3908
85.6524
83.912
82.1737
-50.5348
-30.3009
-11.0802
35.7519
28.3422
16.3792
51.2514
39.1787
27.9889
52.6694
42.2531
34.2183
57.0055
48.7228
41.9714
61.3907
54.486
48.5987
64.6611
58.7829
53.7367
67.2545
62.2319
57.9249
69.4406
65.11
61.4026
71.2856
67.5081
64.2822
72.8369
69.5075
66.6713
74.1437
71.1819
68.664
75.2467
72.5894
70.3336
76.178
73.7752
71.7376
76.9642
74.776
72.9216
77.6272
75.6214
73.922
78.1851
76.3352
74.7678
78.6532
76.9373
75.4827
79.0445
77.4439
76.0862
79.3699
77.8688
76.5943
79.639
78.2239
77.0208
79.8605
78.5193
77.3774
80.041
78.7631
77.6735
80.1886
78.9646
77.9191
80.3057
79.127
78.1186
80.4041
79.2628
78.2845
80.4752
79.3638
78.4102
80.5476
79.4588
78.5225
80.5813
79.5089
78.5866
80.6503
79.592
78.6761
-2.61378
-2.49172
-1.02034
0.115548
0.146594
0.232366
0.296299
0.276661
0.287291
0.34228
0.34891
0.303622
0.269346
0.265307
0.26035
0.223036
0.169731
0.137349
0.143774
0.168244
0.174149
0.145088
0.0907643
0.0335489
-0.00138681
-0.00298372
0.0122003
0.0159091
0.00538692
0.00113051
2.62455
-0.349361
1.19408
0.69054
-0.610937
-0.403434
0.198488
0.250784
0.259267
0.360405
0.348087
0.247432
0.196181
0.232238
0.272103
0.228462
0.144577
0.0937552
0.114145
0.172237
0.198881
0.16485
0.0907192
0.0113503
-0.0346102
-0.0267291
0.0107157
0.0257892
0.00986378
0.00170628
13.7386
5.35645
2.57353
0.160617
-0.203354
1.07325
1.26822
0.0754421
-0.326904
0.00988203
0.365191
0.25888
0.173729
0.253288
0.318671
0.230531
0.0784219
-0.0115613
0.0411467
0.178672
0.254067
0.206763
0.0996456
-0.0146392
-0.0802823
-0.0603291
0.0133772
0.047418
0.0191289
0.00219885
23.4761
13.6064
7.74981
3.9808
2.21595
1.60986
0.472853
-0.209335
0.0718064
1.24533
1.21831
0.146916
-0.257507
-0.109774
0.265647
0.303575
0.0618478
-0.0867691
0.0321842
0.257766
0.351626
0.257429
0.0956091
-0.0713042
-0.16881
-0.128926
0.0114844
0.0869242
0.0377796
0.00204286
32.6341
22.8748
15.5609
10.2684
6.62729
4.15071
2.29885
1.28192
0.983333
1.02542
0.546347
-0.0247232
-0.165583
0.517179
1.05184
0.571527
-0.0767197
-0.461468
-0.414162
0.150653
0.472134
0.349227
0.116043
-0.112472
-0.247849
-0.168115
0.0483661
0.168513
0.0772353
0.000429985
40.6026
31.679
23.7948
17.3652
12.4405
8.79563
6.12427
4.24298
2.97501
2.09055
1.33235
0.733689
0.447631
0.599404
0.597818
0.343153
-0.166855
-0.504312
-0.152749
0.749974
0.90203
0.412636
0.0692965
-0.236048
-0.462708
-0.442121
-0.0194122
0.271059
0.141567
-0.00545525
47.1047
39.3003
31.5263
24.6379
19.0145
14.5565
11.0367
8.28761
6.19612
4.62799
3.40702
2.43223
1.74842
1.36472
1.0609
0.700404
0.209582
-0.100051
0.0751609
0.488969
0.633296
0.426464
0.107176
-0.241011
-0.496014
-0.350587
0.298697
0.547907
0.227874
-0.0190187
52.4002
45.6692
38.4124
31.5839
25.7029
20.7598
16.6228
13.2036
10.4353
8.22083
6.4283
4.96886
3.83539
3.00553
2.35616
1.74558
1.15047
0.744284
0.665515
0.784046
0.81279
0.59209
0.230892
-0.125166
-0.341587
-0.229647
0.158217
0.369071
0.304906
-0.0641481
56.7198
50.9029
44.3188
37.8462
32.0297
26.92
22.4528
18.5929
15.3103
12.5487
10.2301
8.29244
6.70435
5.4273
4.37611
3.45967
2.66264
2.05994
1.71138
1.54142
1.35551
1.02582
0.613684
0.241216
0.0171471
0.0371452
0.243904
0.369768
0.258284
-0.301639
60.2448
55.1768
49.274
43.2895
37.7365
32.6929
28.1296
24.0423
20.4322
17.2798
14.547
12.1936
10.1867
8.48943
7.04649
5.80267
4.7375
3.8728
3.22553
2.74223
2.3026
1.82204
1.32315
0.883146
0.577591
0.455042
0.465755
0.426554
0.172014
-0.517429
63.1396
58.6796
53.3991
47.9309
42.735
37.8946
33.397
29.2536
25.4849
22.0961
19.0745
16.3991
14.0472
11.9926
10.2007
8.63604
7.27734
6.12266
5.16797
4.37458
3.67013
2.99753
2.3566
1.78906
1.34146
1.03503
0.824803
0.582645
0.173077
-0.594196
65.537
61.5728
56.8343
51.8551
47.0404
42.4688
38.1334
34.0511
30.2515
26.7528
23.5585
20.6624
18.0539
15.7181
13.6344
11.7805
10.1386
8.69868
7.44909
6.3615
5.39055
4.49669
3.67033
2.92974
2.29862
1.78152
1.33954
0.883199
0.312745
-0.523705
67.5367
63.9808
59.7051
55.1657
50.7192
46.4359
42.3097
38.3576
34.6113
31.0952
27.8217
24.7948
22.0132
19.4712
17.1584
15.0621
13.1696
11.4702
9.95154
8.59266
7.36393
6.23776
5.2018
4.26006
3.42044
2.67812
2.00097
1.3267
0.586499
-0.331733
69.2138
65.9976
62.1155
57.9624
53.8541
49.8527
45.9509
42.163
38.5196
35.0467
31.7613
28.6732
25.7873
23.1047
20.6223
18.3342
16.2329
14.3101
12.5554
10.9537
9.48532
8.1307
6.87755
5.72223
4.66329
3.69136
2.78065
1.88801
0.96826
-0.0548117
70.6263
67.6952
64.148
60.331
56.526
52.7878
49.1071
45.4951
41.9795
38.5858
35.3325
32.2324
29.2943
26.5236
23.9221
21.4889
19.2208
17.1125
15.1569
13.3436
11.6591
10.0896
8.62402
7.25536
5.97749
4.77945
3.64069
2.53132
1.42225
0.266752
71.8191
69.1289
65.8678
62.3421
58.8059
55.3072
51.8353
48.3981
45.0197
41.724
38.5294
35.45
32.4964
29.6767
26.9961
24.457
22.0594
19.8012
17.6781
15.6835
13.8083
12.0427
10.3773
8.8042
7.31546
5.90005
4.54151
3.21857
1.91192
0.59717
72.8279
70.3423
67.3262
64.0531
60.7533
57.4699
54.1904
50.9197
47.6787
44.4888
41.3677
38.3293
35.3851
32.5447
29.8152
27.2012
24.7052
22.3276
20.0667
17.9185
15.8775
13.9364
12.0878
10.3241
8.63693
7.01603
5.44778
3.91609
2.40671
0.910625
73.6815
71.37
68.5643
65.5101
62.4178
59.326
56.2212
53.1056
49.9967
46.9139
43.8731
40.8876
37.9691
35.1277
32.3715
29.7066
27.1372
24.6656
22.292
20.0148
17.8306
15.7346
13.7207
11.7822
9.91133
8.09843
6.33178
4.59808
2.88488
1.19256
74.4032
72.2402
69.6154
66.751
63.8402
60.9179
57.9701
54.9965
52.0118
49.0329
46.0741
43.1478
40.2651
37.4362
34.6694
31.9719
29.349
26.8041
24.339
21.9538
19.6469
17.415
15.2536
13.1569
11.1175
9.12681
7.17401
5.24701
3.33327
1.43791
75.0123
72.9761
70.5069
67.8069
65.0543
62.2814
59.4734
56.6283
53.7581
50.8774
47.9991
45.1342
42.2931
39.4855
36.7198
34.0035
31.3425
28.7411
26.2022
23.7272
21.3155
18.9654
16.6734
14.4345
12.2421
10.088
7.96206
5.85238
3.7455
1.64804
75.5249
73.5968
71.2613
68.7033
66.0883
63.4462
60.7619
58.0318
55.2656
52.4761
49.6744
46.8704
44.0734
41.2925
38.5359
35.8111
33.124
30.4798
27.8819
25.3324
22.832
20.3796
17.9728
15.6071
13.2768
10.9739
8.68851
6.40851
4.11929
1.82715
75.9549
74.1188
71.8978
69.4621
66.9662
64.4378
61.862
59.2338
56.561
53.8546
51.1242
48.3785
45.6258
42.8744
40.1321
37.406
34.7023
32.0261
29.3814
26.7708
24.1956
21.6554
19.1484
16.6709
14.2174
11.7803
9.34965
6.91311
4.455
1.98027
76.3133
74.5551
72.4317
70.1008
67.7072
65.2771
62.7956
60.2567
57.6666
55.0346
52.3692
49.6778
46.9678
44.2467
41.5217
38.7994
36.086
33.3865
30.705
28.0446
25.4068
22.792
20.1985
17.6232
15.0608
12.504
9.94284
7.3646
4.75291
2.11087
76.6111
74.9183
72.8776
70.6356
68.3292
65.9831
63.5826
61.1208
58.6028
56.0365
53.429
50.787
48.1168
45.4251
42.7186
40.0033
37.2852
34.5691
31.8592
29.1585
26.4691
23.7913
21.124
18.4642
15.807
13.145
10.4684
7.76407
5.01525
2.22275
76.8545
75.216
73.2443
71.0769
68.8435
66.5682
64.2361
61.8401
59.3838
56.874
54.3171
51.7187
49.0843
46.42
43.7317
41.0251
38.3056
35.578
32.8463
30.1136
27.3819
24.6518
21.9224
19.1909
16.4524
13.6997
10.9228
8.10862
5.24001
2.31553
77.0552
75.4609
73.5459
71.4397
69.2666
67.0495
64.7742
62.4327
60.0279
57.5658
55.0517
52.4906
49.8874
47.2474
44.576
41.8784
39.1597
36.4243
33.6763
30.9185
28.1529
25.3804
22.5998
19.8087
17.0022
14.1731
11.3113
8.40365
5.43284
2.39437
77.2101
75.6507
73.7804
71.7229
69.5975
67.4269
65.1968
62.899
60.5356
58.1119
55.6327
53.1021
50.5247
47.9051
45.2482
42.5589
39.842
37.1015
34.3414
31.5643
28.7724
25.9663
23.145
20.3061
17.4446
14.5535
11.6225
8.6383
5.58383
2.45224
77.3414
75.8076
73.9715
71.9508
69.8616
67.726
65.5302
63.2656
60.9338
58.5394
56.0869
53.5799
51.0224
48.4188
45.7735
43.0911
40.376
37.6323
34.8634
32.0721
29.2604
26.4289
23.5767
20.7012
17.7975
14.8584
11.8737
8.82975
5.70932
2.50175
77.4221
75.9045
74.0907
72.095
70.0302
67.9181
65.7452
63.5029
61.1922
58.8176
56.383
53.8919
51.348
48.7553
46.118
43.4404
40.7268
37.9811
35.2065
32.4059
29.5811
26.7327
23.8596
20.9594
18.0271
15.0553
12.0336
8.94818
5.78159
2.52161
77.511
75.9945
74.1929
72.2122
70.1611
68.0616
65.9008
63.6702
61.3706
59.006
56.5805
54.0972
51.5597
48.9719
46.3379
43.6619
40.9481
38.2001
35.4215
32.6148
29.7819
26.9233
24.0382
21.1238
18.1753
15.1852
12.1426
9.03282
5.83596
2.5281
)
;

boundaryField
{
    inlet
    {
        type            zeroGradient;
    }
    outlet
    {
        type            fixedValue;
        value           uniform 0;
    }
    flap
    {
        type            zeroGradient;
    }
    upperWall
    {
        type            zeroGradient;
    }
    lowerWall
    {
        type            zeroGradient;
    }
    frontAndBack
    {
        type            empty;
    }
}


// ************************************************************************* //
