/*--------------------------------*- C++ -*----------------------------------*\
| =========                 |                                                 |
| \\      /  F ield         | OpenFOAM: The Open Source CFD Toolbox           |
|  \\    /   O peration     | Version:  2006                                  |
|   \\  /    A nd           | Website:  www.openfoam.com                      |
|    \\/     M anipulation  |                                                 |
\*---------------------------------------------------------------------------*/
FoamFile
{
    version     2.0;
    format      ascii;
    class       surfaceScalarField;
    location    "0.9";
    object      meshPhi;
}
// * * * * * * * * * * * * * * * * * * * * * * * * * * * * * * * * * * * * * //

dimensions      [0 3 -1 0 0 0 0];
oriented        oriented;


internalField   nonuniform List<scalar> 
5457
(
0.000242225
-6.07833e-07
0.000458438
-1.77764e-06
0.00065173
-2.94486e-06
0.000825628
-4.20376e-06
0.000982562
-5.61622e-06
0.00112359
-7.21996e-06
0.00124862
-9.02961e-06
0.00135514
-1.10497e-05
0.00144184
-1.32112e-05
0.00151108
-1.54104e-05
0.0015622
-1.76162e-05
0.00159328
-1.97736e-05
0.00160496
-2.17977e-05
0.0015986
-2.36462e-05
0.0015765
-2.53207e-05
0.00154183
-2.68863e-05
0.00149794
-2.84611e-05
0.00144795
-3.0171e-05
0.00139447
-3.21079e-05
0.00133918
-3.42737e-05
0.0012822
-3.64939e-05
0.00122171
-3.83e-05
0.00115388
-3.87641e-05
0.00107516
-3.6355e-05
0.00098254
-2.89048e-05
0.000872752
-1.36078e-05
0.000734293
1.24016e-05
0.000571958
5.36784e-05
0.000428637
0.000113229
0.000191295
0.000242177
-1.21013e-06
0.000458503
-3.54157e-06
0.000651921
-5.87325e-06
0.000825854
-8.39097e-06
0.000983059
-1.12167e-05
0.00112474
-1.44284e-05
0.00125127
-1.8054e-05
0.0013587
-2.20713e-05
0.00144512
-2.63777e-05
0.00151541
-3.08341e-05
0.0015684
-3.53252e-05
0.00160089
-3.97016e-05
0.0016139
-4.38155e-05
0.00160875
-4.75825e-05
0.00158776
-5.09978e-05
0.00155438
-5.41942e-05
0.00151217
-5.74275e-05
0.00146429
-6.09721e-05
0.00141367
-6.50436e-05
0.00136249
-6.97079e-05
0.00131175
-7.47303e-05
0.00126066
-7.93954e-05
0.00120472
-8.21744e-05
0.00114161
-8.04269e-05
0.00107185
-7.05375e-05
0.00100202
-4.90384e-05
0.000926501
-1.30707e-05
0.000851275
4.21463e-05
0.000836487
0.00011712
0.000205702
0.000242551
-1.81093e-06
0.000459649
-5.30309e-06
0.000653577
-8.80473e-06
0.000827499
-1.25883e-05
0.000985288
-1.68315e-05
0.00112829
-2.16618e-05
0.00125685
-2.71156e-05
0.0013659
-3.31128e-05
0.00145346
-3.9579e-05
0.00152613
-4.64048e-05
0.00158197
-5.33067e-05
0.00161721
-6.00171e-05
0.00163303
-6.6367e-05
0.00163055
-7.22266e-05
0.00161208
-7.75666e-05
0.00158182
-8.2594e-05
0.00154371
-8.77524e-05
0.00150076
-9.35021e-05
0.00145635
-0.000100226
0.00141349
-0.000108143
0.00137489
-0.00011712
0.00134332
-0.000126607
0.00131016
-0.000135111
0.00127501
-0.000139528
0.00124514
-0.000135823
0.00123488
-0.000121275
0.00126147
-9.45036e-05
0.00132352
-5.54455e-05
0.00147737
-1.34849e-05
2.71157e-05
0.000243149
-2.41216e-06
0.000462102
-7.06894e-06
0.000657015
-1.17372e-05
0.000830414
-1.67774e-05
0.000989101
-2.24468e-05
0.00113416
-2.89166e-05
0.00126426
-3.62235e-05
0.00137619
-4.42816e-05
0.00146858
-5.30365e-05
0.00154473
-6.23259e-05
0.00160327
-7.17356e-05
0.0016425
-8.09431e-05
0.00166269
-8.97545e-05
0.00166444
-9.79933e-05
0.00164965
-0.000105559
0.00162429
-0.000112734
0.00159305
-0.000120253
0.00155799
-0.000128805
0.00152303
-0.000138965
0.00149196
-0.000151189
0.00146895
-0.000165497
0.00146218
-0.000182041
0.0014636
-0.00020037
0.00147424
-0.000217342
0.00149928
-0.000228729
0.00155476
-0.000232451
0.00168315
-0.000229401
0.00187796
-0.000224641
0.0021593
-0.000232484
-0.000254096
0.000243378
-3.01384e-06
0.000464788
-8.83796e-06
0.000661126
-1.46671e-05
0.000834659
-2.09624e-05
0.00099476
-2.80786e-05
0.00114216
-3.62101e-05
0.00127416
-4.53994e-05
0.00139071
-5.55946e-05
0.00148955
-6.66705e-05
0.00156889
-7.8347e-05
0.00163009
-9.02401e-05
0.0016741
-0.000102043
0.00169965
-0.000113494
0.00170647
-0.000124408
0.00169736
-0.000134753
0.00168042
-0.000144863
0.00165928
-0.000155529
0.0016349
-0.000167681
0.0016123
-0.000182274
0.00159573
-0.000200153
0.00158982
-0.000221742
0.00160384
-0.000247649
0.00164628
-0.000278248
0.00171935
-0.000312062
0.00181277
-0.000346251
0.0019453
-0.000378152
0.0021599
-0.000407946
0.00245029
-0.000439391
0.00278632
-0.000477444
-0.000501001
0.000242801
-3.61526e-06
0.000466929
-1.06123e-05
0.000665226
-1.76309e-05
0.000840931
-2.5213e-05
0.00100298
-3.37769e-05
0.00115243
-4.35723e-05
0.00128714
-5.46725e-05
0.00140836
-6.70172e-05
0.0015121
-8.03625e-05
0.00159459
-9.43821e-05
0.00165967
-0.000108827
0.00170898
-0.000123385
0.00174048
-0.000137706
0.00175368
-0.000151641
0.00175456
-0.00016539
0.00175073
-0.00017934
0.00174228
-0.000194076
0.00173112
-0.000210741
0.00172377
-0.000230874
0.00172555
-0.000255962
0.00174124
-0.000287073
0.00177715
-0.000324948
0.00185609
-0.000370332
0.00198127
-0.000423628
0.00214797
-0.00048474
0.0023693
-0.000551166
0.00266076
-0.000619298
0.00302205
-0.000686563
0.00338477
-0.000741812
-0.00072825
0.00024279
-4.22525e-06
0.000469783
-1.24067e-05
0.000670374
-2.06171e-05
0.00084822
-2.94792e-05
0.00101255
-3.94912e-05
0.00116472
-5.0972e-05
0.0013026
-6.40171e-05
0.00142722
-7.85572e-05
0.00153482
-9.43316e-05
0.00162297
-0.000111029
0.0016949
-0.000128407
0.00175128
-0.000146106
0.00179067
-0.000163755
0.00181344
-0.00018124
0.00182683
-0.000198781
0.00183656
-0.000216855
0.00184177
-0.000236264
0.00184569
-0.000258345
0.00185608
-0.000285036
0.00188124
-0.000318721
0.00192436
-0.000361005
0.00199163
-0.000412936
0.00210403
-0.000476213
0.00226524
-0.000551998
0.00249423
-0.000641375
0.00279113
-0.000742873
0.0031476
-0.000851841
0.00357496
-0.00096311
0.00401257
-0.00106086
-0.00106423
0.000244697
-4.84443e-06
0.000473371
-1.42151e-05
0.000676117
-2.35932e-05
0.000856046
-3.37267e-05
0.00102325
-4.52237e-05
0.0011789
-5.8423e-05
0.00132051
-7.34396e-05
0.00144876
-9.02411e-05
0.0015615
-0.000108617
0.00165784
-0.000128269
0.00173899
-0.000148875
0.00180474
-0.000170045
0.00185474
-0.000191447
0.00189022
-0.000213078
0.00191509
-0.000234961
0.00193642
-0.000257539
0.00195687
-0.000282272
0.00197682
-0.000310664
0.00200658
-0.000344834
0.00205984
-0.000388437
0.0021311
-0.000443166
0.00223009
-0.000509886
0.00237849
-0.000592048
0.00257742
-0.000691708
0.00284917
-0.000809482
0.00319277
-0.000944949
0.00359715
-0.00109469
0.00408403
-0.00125734
0.00464155
-0.00142804
-0.00150355
0.000246427
-5.46173e-06
0.000476356
-1.60282e-05
0.000681353
-2.66056e-05
0.000865362
-3.80499e-05
0.00103612
-5.10412e-05
0.00119506
-6.59576e-05
0.00134092
-8.29686e-05
0.00147387
-0.000102078
0.0015929
-0.000123094
0.00169782
-0.000145736
0.00178873
-0.000169681
0.00186509
-0.00019453
0.00192773
-0.000219978
0.00197627
-0.000245953
0.00201191
-0.000272551
0.00204736
-0.000300634
0.00208652
-0.000331952
0.00212236
-0.000367606
0.00217159
-0.000409789
0.00225095
-0.000463265
0.00234619
-0.000530659
0.00247421
-0.000613456
0.00265826
-0.000715501
0.00289433
-0.000839101
0.00319542
-0.000984361
0.00357091
-0.00115212
0.00401195
-0.00134039
0.00454476
-0.00155124
0.00518606
-0.00178399
-0.0019022
0.000248102
-6.09536e-06
0.000479483
-1.78746e-05
0.000687023
-2.96696e-05
0.00087573
-4.24417e-05
0.00105034
-5.69199e-05
0.00121294
-7.35545e-05
0.00136359
-9.25814e-05
0.00150184
-0.000114037
0.00162715
-0.000137735
0.00174043
-0.000163411
0.00184145
-0.000190812
0.00192902
-0.000219558
0.00200453
-0.000249292
0.0020641
-0.000279663
0.00211346
-0.000311327
0.00216915
-0.000345951
0.00222573
-0.000384314
0.00227555
-0.000427392
0.00234472
-0.000478647
0.00244127
-0.00054231
0.00255943
-0.000622425
0.00272171
-0.000722877
0.00293581
-0.000845766
0.00320221
-0.000993134
0.00352972
-0.00116615
0.00393313
-0.00136505
0.00441098
-0.0015886
0.00497765
-0.00183504
0.00561486
-0.00208233
-0.00216469
0.000251954
-6.75049e-06
0.000483485
-1.97595e-05
0.000693431
-3.27604e-05
0.000886306
-4.68551e-05
0.00106502
-6.28305e-05
0.00123208
-8.11934e-05
0.00138818
-0.000102248
0.00153224
-0.000126093
0.00166353
-0.000152503
0.00178508
-0.000181223
0.00189696
-0.000212171
0.00199655
-0.000245032
0.00208421
-0.000279387
0.00215611
-0.000314892
0.0022244
-0.00035246
0.00230106
-0.000393872
0.00236702
-0.000438803
0.00243175
-0.000489348
0.00252669
-0.000551473
0.00264279
-0.000628514
0.00278513
-0.000723133
0.00297589
-0.000839957
0.00321342
-0.000982712
0.00350581
-0.0011542
0.00386397
-0.00135621
0.00429854
-0.00158759
0.00481703
-0.00184298
0.0054056
-0.00210599
0.00598317
-0.0023239
-0.0023294
0.000256752
-7.40251e-06
0.000487659
-2.16384e-05
0.000699891
-3.58519e-05
0.000897061
-5.12773e-05
0.00108008
-6.87475e-05
0.00125201
-8.88257e-05
0.00141446
-0.000111898
0.00156442
-0.000138051
0.00170063
-0.000167082
0.00183068
-0.000198924
0.00195465
-0.000233588
0.00206759
-0.000270757
0.00216896
-0.000310138
0.00225703
-0.000351425
0.00234572
-0.00039532
0.00243697
-0.000443145
0.00251069
-0.000495012
0.0025981
-0.00055459
0.00272389
-0.000628248
0.00286548
-0.000718589
0.0030263
-0.000827604
0.00323473
-0.00096109
0.00349827
-0.00112551
0.00381863
-0.00132362
0.00421254
-0.00155667
0.00468466
-0.00182138
0.00523846
-0.00210364
0.00583692
-0.00236861
0.00637214
-0.002548
-0.00249135
0.000260453
-8.0388e-06
0.000492137
-2.3508e-05
0.00070691
-3.8966e-05
0.000908061
-5.57199e-05
0.00109533
-7.46614e-05
0.00127213
-9.64224e-05
0.00144076
-0.000121432
0.00159654
-0.000149754
0.0017388
-0.000181437
0.00187773
-0.000216577
0.00201363
-0.000254959
0.00214164
-0.000296438
0.00225766
-0.000340717
0.00236117
-0.00038746
0.00246891
-0.000437819
0.00257104
-0.000492232
0.00266162
-0.000551828
0.00277854
-0.000621923
0.00292868
-0.000706739
0.00308752
-0.000807737
0.00326691
-0.000930504
0.00350217
-0.00108384
0.00379694
-0.00127229
0.00414862
-0.00149757
0.00457607
-0.00176161
0.00508003
-0.0020585
0.00566031
-0.00236802
0.00627633
-0.00264377
0.00683233
-0.00281195
-0.00272599
0.00026273
-8.68995e-06
0.000497571
-2.54281e-05
0.000715158
-4.21408e-05
0.000919298
-6.02004e-05
0.00111063
-8.05896e-05
0.00129206
-0.000104004
0.00146552
-0.000130897
0.00162847
-0.000161459
0.00177982
-0.000195814
0.00192616
-0.000233968
0.00207239
-0.000275896
0.00221531
-0.000321588
0.00234429
-0.000370356
0.00246445
-0.000422573
0.00258954
-0.000479599
0.00270328
-0.000540949
0.00282053
-0.000609121
0.00296699
-0.000689759
0.00313342
-0.000785456
0.00330835
-0.000898471
0.0035169
-0.00103638
0.00378479
-0.00120788
0.0041047
-0.00141652
0.0044825
-0.00166502
0.00493206
-0.00195557
0.00545234
-0.00228108
0.00605195
-0.00262323
0.00670496
-0.00293989
0.00734862
-0.00315486
-0.00305229
0.000264737
-9.37564e-06
0.00050318
-2.74161e-05
0.000723618
-4.53784e-05
0.000930608
-6.47442e-05
0.00112593
-8.65811e-05
0.00131192
-0.000111636
0.00148991
-0.000140406
0.00166049
-0.000173173
0.00182083
-0.000209956
0.00197489
-0.000250969
0.00213167
-0.000296623
0.00228602
-0.000346471
0.00242848
-0.00039986
0.00256991
-0.000457918
0.00270894
-0.000520969
0.00283882
-0.000589164
0.0029866
-0.000666696
0.0031577
-0.000757367
0.00334277
-0.000863496
0.00354449
-0.000989427
0.00378386
-0.0011417
0.00407414
-0.00132729
0.00441162
-0.00155101
0.00480619
-0.00181628
0.00526277
-0.00212336
0.0057772
-0.00246345
0.00635517
-0.00281735
0.00694932
-0.00313719
0.00746302
-0.00332653
-0.00377408
0.000539866
-0.000466953
0.00112968
-0.000495119
0.00190851
-0.000538766
0.00272399
-0.000567723
0.00349124
-0.00058524
0.00416051
-0.000592823
0.00470206
-0.00059015
0.00509134
-0.000577768
0.0053503
-0.000559032
0.00552476
-0.000535761
0.0056328
-0.000509513
0.00567974
-0.000488889
0.00566183
-0.000470872
0.00559043
-0.000442211
0.00547204
-0.000405191
0.00531402
-0.00037211
0.00512166
-0.000345419
0.00488323
-0.000317472
0.00461275
-0.000283199
0.00432055
-0.000246158
0.00400751
-0.000217634
0.00368209
-0.000194555
0.00330499
-0.000167456
0.00289925
-0.00013986
0.00250359
-0.0001155
0.00207161
-9.32922e-05
0.00159355
-7.2078e-05
0.00109855
-5.17102e-05
0.000580203
-3.16781e-05
-1.08841e-05
0.000988789
-0.000831438
0.00153141
-0.000904948
0.00223412
-0.000997435
0.00297915
-0.00106245
0.00369796
-0.00110482
0.00432885
-0.00112618
0.0048354
-0.00112473
0.00520062
-0.00109994
0.00544893
-0.00106261
0.0056123
-0.00102254
0.00569977
-0.000972921
0.00573187
-0.00092252
0.00571216
-0.000881931
0.00563467
-0.000837858
0.00550693
-0.000782213
0.00534617
-0.000725462
0.0051539
-0.000671281
0.00491346
-0.000611443
0.00463613
-0.000545739
0.0043326
-0.000481111
0.0040135
-0.000423958
0.00368757
-0.000373054
0.00331173
-0.00032289
0.00290422
-0.000271773
0.00250298
-0.000223404
0.00207026
-0.000180893
0.0015966
-0.000141036
0.00110193
-0.000101529
0.000578924
-6.21701e-05
-2.1328e-05
0.00167981
-0.00108075
0.00216441
-0.00120321
0.00276699
-0.00134988
0.00342575
-0.00146511
0.00407404
-0.00154485
0.00463991
-0.00158467
0.00508963
-0.00158872
0.00541395
-0.0015644
0.00563296
-0.00152101
0.00577051
-0.00146962
0.00582181
-0.00139979
0.00582484
-0.00131737
0.00579938
-0.00125407
0.00571339
-0.00119733
0.00557163
-0.00112314
0.00540073
-0.00103948
0.00520797
-0.000958144
0.00496529
-0.000878016
0.00467846
-0.000792562
0.00436261
-0.000704701
0.0040342
-0.000619934
0.00370425
-0.00054172
0.00332976
-0.00046959
0.00292022
-0.000398139
0.00250927
-0.000328802
0.00207349
-0.000265931
0.00160394
-0.000207072
0.00110873
-0.000149518
0.000580089
-9.19435e-05
-3.16335e-05
0.00238845
-0.00124022
0.00283545
-0.00143472
0.00337482
-0.00164383
0.00397318
-0.00181501
0.00454934
-0.00193088
0.00504039
-0.00198644
0.00542255
-0.0019933
0.0056948
-0.00196687
0.0058677
-0.00191592
0.00596793
-0.00185076
0.00598803
-0.00177337
0.00595905
-0.00168177
0.00591392
-0.00159655
0.00581909
-0.00152041
0.00566585
-0.00143232
0.00547615
-0.00132689
0.00527252
-0.00121975
0.00502657
-0.00112074
0.004733
-0.00101898
0.00440969
-0.00091123
0.00407118
-0.000803339
0.00373019
-0.000700989
0.00335382
-0.000607503
0.0029434
-0.000517344
0.0025238
-0.000429517
0.00208323
-0.000347591
0.0016144
-0.00027037
0.00111727
-0.00019551
0.000583731
-0.000120499
-4.15268e-05
0.00300865
-0.00143944
0.00346971
-0.00170328
0.00400687
-0.00196086
0.00456718
-0.00216394
0.00507404
-0.00229073
0.00548719
-0.00234559
0.00579181
-0.00234472
0.00600684
-0.00231084
0.00612737
-0.00225445
0.00617872
-0.00217627
0.00617635
-0.00208998
0.0061262
-0.001999
0.00604985
-0.00190271
0.00593859
-0.00180603
0.00578047
-0.00170432
0.00557574
-0.00158918
0.00535035
-0.00146635
0.00509454
-0.00134648
0.00479636
-0.00122572
0.00446861
-0.00110053
0.00412102
-0.000974529
0.00376383
-0.000852566
0.00338065
-0.000738277
0.00296932
-0.000629099
0.00254351
-0.000523955
0.00209789
-0.000424719
0.00162688
-0.000330601
0.00112664
-0.000239367
0.000588396
-0.000147747
-5.09694e-05
0.00360669
-0.00178723
0.00411911
-0.00207217
0.00466758
-0.00233268
0.0051805
-0.00252141
0.00560868
-0.00262559
0.00593542
-0.00265845
0.00615669
-0.00263905
0.0063104
-0.00259076
0.00638435
-0.00252767
0.00639091
-0.00244659
0.00636485
-0.0023557
0.00630228
-0.0022635
0.00620176
-0.00216484
0.00606421
-0.00205519
0.00589693
-0.0019382
0.00568752
-0.0018165
0.00544278
-0.00168663
0.00517171
-0.00155097
0.00486668
-0.00141291
0.0045332
-0.00127228
0.00417755
-0.00113122
0.00380577
-0.000993117
0.00341311
-0.000860542
0.00299828
-0.000733542
0.00256674
-0.000612153
0.00211594
-0.000497043
0.00164117
-0.000387381
0.00113692
-0.000280833
0.000593739
-0.00017355
-5.99167e-05
0.00428496
-0.0021973
0.00482449
-0.00247307
0.00533883
-0.00270157
0.00577601
-0.00284681
0.00611215
-0.00291275
0.00634842
-0.00291702
0.00649289
-0.00287906
0.00657532
-0.00281468
0.00660804
-0.0027398
0.00658959
-0.00265913
0.00654087
-0.00257061
0.00646357
-0.00247668
0.00634999
-0.00237594
0.00619623
-0.00226529
0.00601162
-0.00214363
0.00579628
-0.00201401
0.00554042
-0.00187664
0.00525559
-0.00173085
0.00494117
-0.00158024
0.00459973
-0.00142671
0.0042357
-0.00127242
0.00385287
-0.00112013
0.00345092
-0.000972249
0.00303018
-0.000829929
0.00259258
-0.000693838
0.00213624
-0.000564318
0.00165681
-0.000440442
0.00114789
-0.00031971
0.000599501
-0.00019779
-6.83297e-05
0.00499804
-0.0025003
0.00551404
-0.00278434
0.00595511
-0.00298508
0.00630285
-0.00309501
0.00655097
-0.00313163
0.00670964
-0.00311674
0.0067949
-0.00306927
0.00681789
-0.00300044
0.00681364
-0.00292173
0.00677724
-0.00284006
0.00670952
-0.00275257
0.00661511
-0.00265829
0.00648863
-0.00255594
0.00632936
-0.00244454
0.00613093
-0.00232178
0.00590238
-0.00218685
0.00563736
-0.00204188
0.00534159
-0.00188819
0.00501733
-0.00172818
0.00466707
-0.00156416
0.0042942
-0.00139861
0.00390189
-0.00123421
0.0034915
-0.00107341
0.00306397
-0.000917919
0.00262003
-0.0007688
0.00215792
-0.000626355
0.00167331
-0.000489597
0.00115931
-0.000355852
0.000605491
-0.000220375
-7.6177e-05
0.00560449
-0.00266403
0.00607871
-0.0029796
0.00645585
-0.00317127
0.00672969
-0.00326567
0.00690934
-0.00328674
0.00701193
-0.00326229
0.00705583
-0.00321154
0.00704976
-0.00314562
0.0070184
-0.00307117
0.00696225
-0.00299145
0.00687833
-0.00290585
0.00676792
-0.00281255
0.0066274
-0.00270993
0.00645674
-0.00259661
0.00624859
-0.00247103
0.00600707
-0.00233305
0.00573216
-0.00218362
0.00542657
-0.00202426
0.00509285
-0.0018572
0.0047337
-0.00168495
0.00435219
-0.0015102
0.00395128
-0.00133572
0.00353297
-0.0011641
0.0030985
-0.000997402
0.00264818
-0.000836925
0.0021802
-0.00068304
0.00169019
-0.000534727
0.00117089
-0.00038916
0.000611545
-0.000241241
-8.34358e-05
0.00604956
-0.00279583
0.00650084
-0.00314306
0.00684285
-0.00332132
0.00706435
-0.00339639
0.00719117
-0.00340066
0.00725212
-0.00336656
0.00726538
-0.00331284
0.00724364
-0.00324874
0.00719633
-0.00317864
0.00712599
-0.00310331
0.00703137
-0.00302183
0.00690937
-0.00293207
0.00675822
-0.00283179
0.00657506
-0.00271953
0.00635753
-0.00259396
0.00610634
-0.00245489
0.00582242
-0.00230308
0.00550794
-0.00214007
0.00516551
-0.00196804
0.00479796
-0.00178961
0.00440834
-0.00160762
0.00399955
-0.00142501
0.00357386
-0.00124451
0.00313267
-0.0010684
0.00267615
-0.000898195
0.0022024
-0.000734329
0.00170697
-0.000575776
0.00118236
-0.000419581
0.000617514
-0.000260352
-9.00925e-05
0.00641592
-0.00300223
0.00686001
-0.00335546
0.0071623
-0.00348498
0.00732902
-0.00351334
0.00740587
-0.00348805
0.00743157
-0.00343949
0.00742305
-0.00338185
0.00738903
-0.00331956
0.00733457
-0.00325396
0.0072581
-0.00318405
0.00715832
-0.00310777
0.00703052
-0.00302271
0.00687243
-0.00292632
0.00668153
-0.00281674
0.00645644
-0.00269279
0.00619747
-0.00255422
0.0059058
-0.00240171
0.00558354
-0.00223676
0.00523337
-0.00206157
0.00485824
-0.00187879
0.00446125
-0.00169141
0.00404536
-0.00150247
0.00361295
-0.00131488
0.00316551
-0.00113106
0.00270314
-0.000952677
0.00222389
-0.000780248
0.00172322
-0.000612743
0.00119345
-0.000447103
0.000623263
-0.000277694
-9.61418e-05
0.00681568
-0.00329717
0.00722162
-0.00360468
0.00743827
-0.00364377
0.00753084
-0.00360768
0.00756005
-0.00354929
0.00755943
-0.0034869
0.00754051
-0.0034264
0.00750131
-0.00336653
0.00744454
-0.00330501
0.00736654
-0.00324005
0.00726438
-0.00316902
0.00713353
-0.00308895
0.006971
-0.002997
0.00677473
-0.00289105
0.00654381
-0.0027698
0.00627861
-0.00263291
0.00598049
-0.00248102
0.00565165
-0.00231557
0.00529483
-0.00213874
0.00491311
-0.00195326
0.00450968
-0.00176214
0.00408755
-0.00156856
0.0036492
-0.00137553
0.00319615
-0.00118559
0.00272846
-0.00100051
0.00224414
-0.000820884
0.00173856
-0.000645678
0.0012039
-0.000471753
0.000628665
-0.00029328
-0.000101587
0.0072762
-0.00360629
0.0075601
-0.00381162
0.00765351
-0.00375045
0.00767123
-0.00366374
0.00766568
-0.00358177
0.00765493
-0.00351122
0.00763639
-0.00345101
0.00759533
-0.00339441
0.00753619
-0.00333632
0.0074569
-0.0032754
0.00735307
-0.00320917
0.00721999
-0.00313407
0.00705433
-0.00304681
0.00685412
-0.00294498
0.00661868
-0.00282711
0.00634853
-0.00269277
0.00604517
-0.0025425
0.0057109
-0.00237773
0.00534857
-0.0022006
0.00496136
-0.00201383
0.00455253
-0.00182049
0.00412515
-0.0016238
0.00368175
-0.00142685
0.00322385
-0.00123227
0.0027515
-0.00104191
0.00226266
-0.000856385
0.00175263
-0.000674682
0.00121349
-0.000493593
0.000633611
-0.000307145
-0.00010644
0.00775078
-0.00385277
0.00782944
-0.00391898
0.00780586
-0.00378599
0.00777113
-0.00367494
0.00773971
-0.00358041
0.00772688
-0.00350561
0.00772086
-0.00345178
0.00768097
-0.00340447
0.00761482
-0.00335045
0.00753237
-0.00329232
0.00742644
-0.00323069
0.00729122
-0.00316059
0.00712293
-0.00307816
0.00691955
-0.00298071
0.0066805
-0.00286664
0.0064064
-0.00273546
0.00609886
-0.00258762
0.00576029
-0.00242449
0.00539359
-0.00224817
0.00500203
-0.00206138
0.00458891
-0.00186716
0.00415735
-0.00166877
0.00370987
-0.00146932
0.003248
-0.00127148
0.00277176
-0.00107714
0.00227907
-0.000886953
0.00176516
-0.000699898
0.00122203
-0.000512721
0.000638006
-0.000319345
-0.000110719
0.00815373
-0.00398204
0.00802689
-0.00382262
0.00792604
-0.00371721
0.00785834
-0.00362278
0.00780454
-0.00353917
0.00778039
-0.003472
0.00778212
-0.00342541
0.00774882
-0.0033869
0.00767851
-0.00334146
0.00759371
-0.00329042
0.00748571
-0.00323498
0.00734824
-0.00317042
0.0071774
-0.00309303
0.00697117
-0.00300016
0.00672905
-0.00289021
0.00645176
-0.00276263
0.00614096
-0.00261787
0.00579912
-0.00245721
0.00542918
-0.00228271
0.00503442
-0.00209701
0.00461818
-0.00190315
0.00418355
-0.00170433
0.00373304
-0.00150366
0.00326816
-0.00130383
0.00278888
-0.00110673
0.00229307
-0.000913019
0.00177592
-0.000721664
0.0012294
-0.000529383
0.000641789
-0.000330033
-0.000114477
0.000277467
-1.00872e-05
0.000527571
-2.94611e-05
0.000759358
-4.86899e-05
0.000977862
-6.93823e-05
0.00118494
-9.26762e-05
0.00138296
-0.000119368
0.00157274
-0.000149992
0.00175559
-0.000184825
0.00193077
-0.000224052
0.00210348
-0.000268219
0.00227804
-0.000317626
0.0024468
-0.000371437
0.00261163
-0.00042956
0.00277833
-0.000493064
0.00293451
-0.000561647
0.00309433
-0.000637014
0.00327806
-0.000723482
0.00347667
-0.000823153
0.00369252
-0.000938809
0.00393274
-0.00107577
0.00420826
-0.00123969
0.0045281
-0.00143624
0.00489427
-0.00166986
0.00531225
-0.00194244
0.00577839
-0.00225064
0.0062805
-0.00258041
0.00680371
-0.0029022
0.00727282
-0.00315406
0.00758311
-0.00323902
-0.00307758
0.00714802
0.000287343
-1.08039e-05
0.00054464
-3.15029e-05
0.000784891
-5.19972e-05
0.00101296
-7.40294e-05
0.00122959
-9.87677e-05
0.00143779
-0.000127069
0.00163718
-0.000159518
0.00182899
-0.000196367
0.00201828
-0.000238043
0.00221092
-0.000285319
0.00240098
-0.000338082
0.00258051
-0.000395363
0.00276505
-0.000457629
0.00295342
-0.000525926
0.00313172
-0.000600732
0.00332291
-0.000683827
0.00353577
-0.000777667
0.00376063
-0.00088466
0.0040068
-0.00100849
0.00428141
-0.00115405
0.00458908
-0.00132606
0.00493609
-0.00152864
0.00532423
-0.00176453
0.00575268
-0.00203271
0.00621069
-0.00232531
0.00667664
-0.00262235
0.00712164
-0.00288789
0.00749152
-0.0030683
0.00774795
-0.00310344
-0.00295817
0.00787336
0.000297144
-1.14858e-05
0.00056212
-3.3505e-05
0.000810931
-5.52949e-05
0.00104833
-7.86217e-05
0.00127482
-0.00010472
0.00149439
-0.000134573
0.00170355
-0.000168699
0.00190354
-0.0002073
0.00210709
-0.00025116
0.00231892
-0.00030118
0.00252577
-0.000356941
0.00271781
-0.000417532
0.00291582
-0.000483435
0.00312931
-0.000556406
0.00334079
-0.000637486
0.00355754
-0.000726762
0.0037944
-0.000826413
0.00404802
-0.000939656
0.00432498
-0.00106952
0.00463296
-0.00122048
0.00497107
-0.00139617
0.00534294
-0.00159867
0.00574787
-0.00182852
0.00617891
-0.00208139
0.00661981
-0.00234568
0.00704413
-0.00259941
0.00742072
-0.00280969
0.00771842
-0.00293737
0.0079239
-0.00294775
-0.00284583
0.00805547
0.000305834
-1.21586e-05
0.000581221
-3.55066e-05
0.000838538
-5.85684e-05
0.00108339
-8.3077e-05
0.00131953
-0.000110395
0.00155063
-0.000141618
0.00176987
-0.000177183
0.0019791
-0.000217434
0.00219603
-0.000263383
0.0024232
-0.000315701
0.00264829
-0.000374083
0.00285877
-0.000437821
0.00306934
-0.00050714
0.0033068
-0.00058421
0.00355037
-0.000669772
0.00379363
-0.000763907
0.00405546
-0.000868839
0.00433136
-0.000985815
0.00463706
-0.0011184
0.00497801
-0.00127171
0.0053429
-0.00144671
0.00573445
-0.00164305
0.00614898
-0.00185932
0.00657532
-0.00208902
0.00699468
-0.00231931
0.00738251
-0.00253056
0.00771425
-0.0026973
0.0079762
-0.00279383
0.00817378
-0.00280262
-0.00274446
0.00832379
0.000314316
-1.28267e-05
0.000601153
-3.74565e-05
0.000866606
-6.16659e-05
0.00111711
-8.7201e-05
0.00136253
-0.000115632
0.00160419
-0.000148113
0.00183443
-0.000185065
0.00205693
-0.000226953
0.00228653
-0.000274687
0.00252566
-0.000328872
0.00276829
-0.000389559
0.00299913
-0.00045596
0.00322629
-0.000528001
0.0034811
-0.000607892
0.00374857
-0.000696481
0.00402533
-0.000794318
0.00431439
-0.000902515
0.00460793
-0.00102135
0.00493897
-0.0011549
0.00530693
-0.00130671
0.005692
-0.00147579
0.006096
-0.00166059
0.00651273
-0.00185809
0.00692979
-0.00206116
0.00732942
-0.00225794
0.0076925
-0.00243271
0.00800313
-0.00256747
0.00825448
-0.00264649
0.0084539
-0.00266073
-0.00263195
0.00860773
0.000322956
-1.34443e-05
0.000619405
-3.92216e-05
0.000892665
-6.4423e-05
0.00115009
-9.09329e-05
0.00140503
-0.000120475
0.00165687
-0.000154131
0.00189822
-0.000192336
0.00213383
-0.000235505
0.00237556
-0.000284475
0.00262676
-0.000340053
0.00288474
-0.000402341
0.00313476
-0.000470627
0.00338351
-0.000545233
0.00365309
-0.000627609
0.00393505
-0.000717637
0.00423779
-0.000816452
0.00455472
-0.000925792
0.00487545
-0.00104579
0.00522765
-0.00117816
0.00560944
-0.00132414
0.00600605
-0.00148295
0.00641523
-0.00165269
0.00682936
-0.00182939
0.00723658
-0.00200617
0.00762185
-0.002173
0.00797133
-0.00231789
0.00827515
-0.00242909
0.00852862
-0.00249695
0.00873692
-0.00251638
-0.00250563
0.0088975
0.000331217
-1.39877e-05
0.000634232
-4.07323e-05
0.000914827
-6.68052e-05
0.0011834
-9.43055e-05
0.00144868
-0.000124879
0.00171034
-0.00015948
0.00196159
-0.000198563
0.0022058
-0.000242469
0.00245907
-0.00029226
0.00272319
-0.000348851
0.00299261
-0.000411993
0.00326095
-0.000481378
0.00353585
-0.000557809
0.00382221
-0.00064153
0.00411372
-0.000731899
0.00443164
-0.000830724
0.00477154
-0.000939537
0.00511889
-0.00105758
0.00548649
-0.00118519
0.00587453
-0.00132285
0.00627594
-0.00146956
0.0066852
-0.00162295
0.0070943
-0.00177895
0.00749265
-0.00193147
0.00786822
-0.00207259
0.00821071
-0.00219357
0.0085134
-0.00228668
0.00877293
-0.00234593
0.0089923
-0.00236849
-0.0023684
0.00916211
0.00033935
-1.44519e-05
0.000648584
-4.2071e-05
0.000936785
-6.90086e-05
0.00121669
-9.73632e-05
0.00149111
-0.000128623
0.00176111
-0.000163753
0.00202159
-0.000203312
0.00227407
-0.000247763
0.00253802
-0.000298186
0.00281354
-0.000355239
0.00309246
-0.000418664
0.00337626
-0.000488469
0.0036708
-0.000565056
0.00397378
-0.000648443
0.00428191
-0.000738651
0.0046124
-0.000836462
0.00496392
-0.000942217
0.00532579
-0.00105558
0.00570285
-0.00117647
0.00609476
-0.00130449
0.00649665
-0.00143827
0.00690246
-0.00157528
0.00730455
-0.00171175
0.00769402
-0.00184264
0.00806159
-0.001962
0.00839913
-0.00206372
0.00870121
-0.00214244
0.00896562
-0.00219428
0.00919395
-0.00221799
-0.00222386
0.00937177
0.00034744
-1.48697e-05
0.000665195
-4.33026e-05
0.000962202
-7.10017e-05
0.00124952
-9.99435e-05
0.00152981
-0.00013156
0.00180542
-0.000166878
0.00207498
-0.000206636
0.00233985
-0.000251468
0.00261337
-0.000302091
0.00289664
-0.000358867
0.00318484
-0.000421817
0.00348036
-0.00049105
0.00378606
-0.000566716
0.00410209
-0.0006488
0.00442758
-0.000737226
0.00476824
-0.000832102
0.00512493
-0.000933393
0.00549371
-0.00104072
0.00587484
-0.00115359
0.00626682
-0.00127114
0.00666545
-0.00139184
0.00706464
-0.00151317
0.00745743
-0.00163179
0.00783677
-0.00174379
0.00819531
-0.00184486
0.00852646
-0.00193063
0.00882566
-0.00199734
0.0090912
-0.00204265
0.00932362
-0.00206601
-0.00207484
0.0095055
0.000354975
-1.52125e-05
0.000681279
-4.42827e-05
0.000986581
-7.24969e-05
0.00127948
-0.000101767
0.00156436
-0.000133539
0.00184461
-0.000168874
0.00212205
-0.000208562
0.00239867
-0.000253207
0.00268049
-0.000303324
0.00296975
-0.000359234
0.00326568
-0.00042105
0.00356982
-0.00048883
0.00388396
-0.000562588
0.00420865
-0.000642208
0.00454374
-0.000727484
0.00489104
-0.000818187
0.00525071
-0.000913951
0.00562093
-0.00101419
0.00600097
-0.00111819
0.00638881
-0.0012249
0.00678045
-0.00133275
0.00717008
-0.00143949
0.00755121
-0.00154223
0.00791816
-0.00163791
0.00826515
-0.00172343
0.00858672
-0.00179567
0.00887921
-0.00185216
0.009141
-0.0018915
0.00937176
-0.00191342
-0.00192327
0.00955274
0.000361401
-1.54283e-05
0.000694469
-4.48854e-05
0.00100628
-7.33753e-05
0.00130446
-0.000102757
0.00159415
-0.000134456
0.00187936
-0.000169525
0.00216292
-0.000208742
0.00244715
-0.000252682
0.00273555
-0.000301772
0.00303027
-0.000356275
0.00333199
-0.000416295
0.00364193
-0.000481832
0.00396146
-0.000552798
0.00429109
-0.000628989
0.00463069
-0.000710074
0.00498046
-0.000795613
0.0053396
-0.000885005
0.00570653
-0.000977453
0.00608061
-0.00107209
0.00646014
-0.0011679
0.00684112
-0.00126345
0.00721812
-0.00135678
0.00758507
-0.00144544
0.00793697
-0.00152697
0.00826935
-0.00159913
0.00857788
-0.00165982
0.00885952
-0.00170746
0.00911262
-0.0017412
0.00933632
-0.00176093
-0.00177047
0.00951177
0.000366511
-1.55137e-05
0.00070482
-4.51067e-05
0.00102171
-7.36301e-05
0.00132441
-0.000102883
0.00161835
-0.000134252
0.00190781
-0.000168754
0.00219592
-0.000207135
0.00248514
-0.000249927
0.00277803
-0.000297493
0.00307654
-0.000350047
0.00338173
-0.000407653
0.00369455
-0.000470237
0.00401627
-0.00053764
0.00434744
-0.000609602
0.00468754
-0.000685695
0.00503591
-0.000765334
0.00539116
-0.000847787
0.00575098
-0.000932094
0.00611473
-0.00101726
0.00648193
-0.00110242
0.00684878
-0.00118637
0.00720979
-0.00126735
0.0075596
-0.00134336
0.00789383