/*--------------------------------*- C++ -*----------------------------------*\
| =========                 |                                                 |
| \\      /  F ield         | OpenFOAM: The Open Source CFD Toolbox           |
|  \\    /   O peration     | Version:  5.x                                   |
|   \\  /    A nd           | Web:      www.OpenFOAM.org                      |
|    \\/     M anipulation  |                                                 |
\*---------------------------------------------------------------------------*/
FoamFile
{
    version     2.0;
    format      ascii;
    class       surfaceScalarField;
    location    "0.9";
    object      phi;
}
// * * * * * * * * * * * * * * * * * * * * * * * * * * * * * * * * * * * * * //

dimensions      [0 3 -1 0 0 0 0];

internalField   nonuniform List<scalar> 
5457
(
0.197511
0.00206096
0.194902
0.00225118
0.192169
0.00245492
0.189244
0.00271424
0.186111
0.00297431
0.182763
0.0032316
0.179196
0.00349512
0.175399
0.0037667
0.17135
0.00404819
0.167029
0.00434559
0.162415
0.00466139
0.157485
0.00499783
0.152214
0.00535783
0.146576
0.0057437
0.140541
0.00615714
0.134078
0.00660007
0.127152
0.00707446
0.119731
0.00758133
0.11178
0.00812021
0.103269
0.0086889
0.0941703
0.00928319
0.0844653
0.00989637
0.0741452
0.0105177
0.0632152
0.0111311
0.0516996
0.0117149
0.0396506
0.0122405
0.0271675
0.0126687
0.0144312
0.0128967
0.00239129
0.0121085
0.00259548
0.199255
0.00237712
0.197954
0.00319324
0.196393
0.00373889
0.194592
0.00430549
0.192534
0.00487438
0.190208
0.0054396
0.187616
0.00601272
0.184751
0.00660091
0.181587
0.00721005
0.178108
0.00784774
0.174297
0.00851938
0.170132
0.00923083
0.165588
0.00998845
0.160638
0.0107974
0.155255
0.0116616
0.149406
0.0125858
0.143053
0.013575
0.136161
0.0146326
0.128689
0.0157594
0.1206
0.0169532
0.111856
0.0182085
0.102423
0.0195155
0.0922751
0.0208577
0.0813936
0.0222084
0.069772
0.0235273
0.057436
0.0247491
0.0445043
0.0257588
0.0312718
0.0262663
0.0178754
0.0255513
0.0206035
0.199109
0.00283728
0.197879
0.00406266
0.196391
0.00495044
0.194689
0.00580146
0.192758
0.00664722
0.190586
0.00749054
0.188181
0.00834088
0.185535
0.00921403
0.18262
0.0101206
0.179425
0.0110643
0.175936
0.0120546
0.172132
0.0131016
0.167988
0.0142155
0.163483
0.0154045
0.158589
0.0166749
0.153275
0.0180354
0.1475
0.019496
0.141224
0.0210638
0.134403
0.0227441
0.126987
0.0245392
0.118922
0.0264479
0.110147
0.0284645
0.100608
0.0305776
0.090237
0.0327679
0.0789416
0.0350007
0.0666275
0.0372123
0.0531955
0.0393013
0.0383813
0.0411659
0.0209704
0.0429723
0.0416558
0.199019
0.00338612
0.197785
0.00493201
0.19631
0.00614635
0.19463
0.00727969
0.192723
0.0083953
0.190582
0.00950803
0.188217
0.0106282
0.185617
0.0117768
0.182767
0.0129649
0.179656
0.0141972
0.176271
0.015487
0.17259
0.0168471
0.168592
0.0182908
0.164263
0.0198298
0.159584
0.0214717
0.154522
0.023231
0.149037
0.0251232
0.143091
0.027159
0.136642
0.0293515
0.129633
0.0317116
0.121998
0.0342496
0.113648
0.0369721
0.104504
0.0398811
0.0944617
0.0429805
0.0833346
0.0462842
0.070878
0.0497897
0.0567725
0.0534686
0.0406087
0.0573503
0.0216804
0.0618668
0.0633824
0.198973
0.00398003
0.197722
0.00581366
0.196258
0.00732948
0.194598
0.00874049
0.19271
0.010123
0.190591
0.0115003
0.188251
0.0128872
0.185681
0.0143035
0.182874
0.0157627
0.179813
0.0172762
0.176481
0.0188596
0.172861
0.020526
0.168933
0.0222896
0.164682
0.024165
0.160097
0.0261654
0.155146
0.0283093
0.149789
0.0306153
0.14399
0.0331004
0.137705
0.035786
0.130879
0.0386934
0.123433
0.0418546
0.115255
0.0452967
0.106223
0.0490426
0.0962139
0.0531209
0.0850263
0.0575942
0.07232
0.0625794
0.0576609
0.06815
0.0406255
0.0743534
0.0212551
0.0811708
0.0846906
0.198951
0.00459547
0.19769
0.00670345
0.196236
0.00850189
0.194593
0.0101841
0.192728
0.0118269
0.190637
0.013463
0.188328
0.0151103
0.185799
0.0167862
0.183038
0.0185108
0.180023
0.0203028
0.176737
0.0221767
0.173166
0.0241475
0.169295
0.026228
0.1651
0.0284356
0.160565
0.030793
0.155669
0.0333206
0.15037
0.0360392
0.144625
0.0389747
0.138392
0.0421581
0.131608
0.0456226
0.12419
0.0494186
0.116024
0.0535997
0.106941
0.0582315
0.0967625
0.0633863
0.0853083
0.0691271
0.0722836
0.0756481
0.0572348
0.0831862
0.0396385
0.0918802
0.0202509
0.100479
0.105052
0.198941
0.00522015
0.197677
0.00759528
0.196235
0.00965993
0.194614
0.0116027
0.192778
0.0134994
0.190721
0.0153887
0.188453
0.0172905
0.185968
0.0192239
0.183255
0.0212134
0.18029
0.0232804
0.177055
0.0254406
0.173538
0.027711
0.169727
0.0301071
0.16559
0.0326486
0.161101
0.0353639
0.156244
0.0382782
0.150979
0.0414161
0.145253
0.0448132
0.139025
0.0485105
0.132216
0.052563
0.124728
0.0570302
0.116457
0.0619843
0.107244
0.0675327
0.0968676
0.0738209
0.0850752
0.0809551
0.0716704
0.0890584
0.0563262
0.0984874
0.0384378
0.109671
0.0192201
0.119599
0.124405
0.198938
0.00584715
0.197676
0.00848187
0.196253
0.0107968
0.194659
0.0129898
0.192855
0.0151358
0.190836
0.017272
0.188614
0.0194222
0.186178
0.0216107
0.183516
0.0238623
0.180609
0.0261992
0.177436
0.0286409
0.173984
0.031207
0.170239
0.0339174
0.16617
0.0367931
0.161739
0.0398705
0.156924
0.043178
0.151695
0.046743
0.145986
0.0506165
0.13975
0.0548498
0.132912
0.059512
0.125347
0.064693
0.116921
0.0704921
0.107503
0.0770141
0.0969145
0.0844474
0.0848492
0.0930238
0.0710376
0.102838
0.0553865
0.114068
0.037365
0.127568
0.0182932
0.138517
0.142749
0.198943
0.00646929
0.197694
0.00935639
0.19629
0.0119117
0.194719
0.0143466
0.192949
0.0167326
0.190977
0.0191074
0.188806
0.0214994
0.186426
0.0239363
0.183825
0.0264431
0.180984
0.0290441
0.177884
0.0317629
0.174508
0.0346221
0.170838
0.037645
0.166846
0.0408572
0.16249
0.0442989
0.15774
0.0480016
0.152568
0.0520014
0.146904
0.0563678
0.140666
0.0611666
0.13379
0.0664663
0.126168
0.0723852
0.117649
0.079064
0.108054
0.0866465
0.0972147
0.0953031
0.0849039
0.105315
0.070747
0.11693
0.0547691
0.129943
0.0365873
0.145589
0.0175632
0.157309
0.16025
0.198952
0.00708204
0.19772
0.010215
0.196338
0.0130021
0.194793
0.0156683
0.193064
0.0182833
0.191144
0.020888
0.18903
0.0235143
0.186713
0.0261919
0.184183
0.0289463
0.181421
0.0318049
0.178403
0.0347954
0.175114
0.0379433
0.171532
0.0412752
0.167628
0.0448241
0.163364
0.048628
0.158708
0.0527255
0.153615
0.0571717
0.148024
0.062042
0.141844
0.0674121
0.134974
0.0733836
0.127328
0.0800749
0.118771
0.0876442
0.109113
0.096319
0.0981117
0.106301
0.0855734
0.11781
0.071193
0.131218
0.0548836
0.146109
0.036438
0.163825
0.0173833
0.176074
0.177526
0.198961
0.00768383
0.19775
0.011053
0.196395
0.0140612
0.194883
0.016948
0.1932
0.0197825
0.191336
0.0226081
0.189285
0.0254597
0.18704
0.0283689
0.184591
0.0313619
0.181918
0.0344704
0.178994
0.0377262
0.175804
0.0411559
0.172327
0.0447898
0.168533
0.0486678
0.164384
0.0528304
0.159848
0.0573212
0.154864
0.0622201
0.149377
0.0675969
0.143309
0.0735334
0.136554
0.0801712
0.128995
0.087653
0.120468
0.0961634
0.110842
0.10593
0.0998535
0.11726
0.0872173
0.130373
0.0726962
0.145619
0.056115
0.162506
0.0374643
0.182216
0.0183073
0.194921
0.19576
0.198972
0.0082722
0.197787
0.0118646
0.196464
0.0150834
0.194992
0.0181807
0.193359
0.0212243
0.191557
0.0242608
0.189575
0.0273275
0.18741
0.0304568
0.185052
0.0336795
0.182476
0.0370305
0.179657
0.0405414
0.176582
0.0442428
0.17323
0.0481679
0.169568
0.052367
0.165558
0.0568807
0.161169
0.0617573
0.156348
0.0670927
0.151034
0.0729586
0.145134
0.0794691
0.138564
0.086764
0.131215
0.0950068
0.122907
0.104449
0.113452
0.11533
0.102655
0.127983
0.0901836
0.142735
0.075775
0.159876
0.0592489
0.178818
0.0407065
0.200463
0.0213308
0.213989
0.217062
0.198988
0.00884228
0.197829
0.0126473
0.196542
0.0160658
0.195115
0.0193617
0.193538
0.0226032
0.191803
0.0258398
0.189898
0.0291101
0.187823
0.032448
0.185561
0.0358913
0.183091
0.0394728
0.180393
0.0432256
0.177448
0.0471872
0.174238
0.0513929
0.170732
0.0558975
0.166893
0.0607443
0.16269
0.0659949
0.158082
0.0717396
0.152999
0.0780707
0.147362
0.0851254
0.14108
0.0930555
0.134056
0.102027
0.126166
0.112312
0.117164
0.124246
0.106891
0.138132
0.0950718
0.154395
0.0814547
0.173297
0.0657441
0.194283
0.0480491
0.217844
0.028461
0.233274
0.245477
0.199007
0.00939083
0.197876
0.0133996
0.196628
0.0170054
0.19525
0.0204868
0.193734
0.0239147
0.192071
0.0273394
0.190253
0.0308015
0.188274
0.0343373
0.18612
0.0379862
0.18377
0.0417837
0.181203
0.0457673
0.178401
0.0499741
0.175354
0.0544447
0.172033
0.0592302
0.168402
0.0643832
0.164435
0.0699801
0.160091
0.0761048
0.155294
0.0828761
0.149995
0.0904213
0.144148
0.098899
0.137634
0.108524
0.130364
0.119536
0.122198
0.132312
0.112987
0.147187
0.102602
0.164577
0.0909106
0.184742
0.077563
0.207332
0.0628088
0.232272
0.0441392
0.251643
0.289466
0.199024
0.00992017
0.197922
0.0141203
0.196715
0.0179003
0.195388
0.0215547
0.193935
0.0251565
0.192347
0.0287571
0.190618
0.0323987
0.18874
0.0361193
0.186702
0.0399574
0.184478
0.0439595
0.182044
0.04816
0.179399
0.0525897
0.176536
0.0573017
0.173421
0.0623444
0.170022
0.0677786
0.166313
0.0736894
0.162257
0.0801556
0.15781
0.0873093
0.152927
0.0952785
0.147607
0.104195
0.141777
0.114317
0.13536
0.12588
0.128369
0.139199
0.120785
0.154603
0.112736
0.172406
0.104446
0.192759
0.0961002
0.215337
0.0887193
0.239319
0.0785174
0.261557
0.367654
0.00435306
-0.00455215
0.00316132
0.00106743
-0.000773066
0.00364939
-0.00695549
0.00585242
-0.0151652
0.00793228
-0.0249417
0.009663
-0.0357433
0.0109168
-0.0471739
0.0117189
-0.0589109
0.0121533
-0.0707145
0.0123001
-0.0824083
0.0122244
-0.0937903
0.0119397
-0.104702
0.0114875
-0.114962
0.0108496
-0.124379
0.0100136
-0.132768
0.00898258
-0.139953
0.00776914
-0.14575
0.00637119
-0.149922
0.00474731
-0.152312
0.00294218
-0.15264
0.000861568
-0.150594
-0.00146042
-0.145847
-0.00417054
-0.138101
-0.00722156
-0.12688
-0.0106067
-0.111783
-0.0143859
-0.0922305
-0.018903
-0.0664972
-0.0251532
-0.0322712
-0.0335333
-0.0342464
-0.00237855
-0.00227808
-0.00627529
0.00480023
-0.0128144
0.00989082
-0.0216364
0.0143347
-0.0321859
0.01818
-0.0438769
0.0212104
-0.0562346
0.0233314
-0.0689566
0.0246547
-0.0817704
0.0253275
-0.0945026
0.0254808
-0.107029
0.0252328
-0.119181
0.0245999
-0.130798
0.0236326
-0.141726
0.0223255
-0.151781
0.0206192
-0.160781
0.0185326
-0.168535
0.0160796
-0.174845
0.0132382
-0.179527
0.0099906
-0.182394
0.00635665
-0.183308
0.00231407
-0.181975
-0.00220881
-0.178368
-0.00720627
-0.172355
-0.0127102
-0.163672
-0.0186832
-0.152212
-0.0251484
-0.138115
-0.0323486
-0.122032
-0.0406348
-0.105861
-0.0490123
-0.0555334
-0.00561203
0.00330149
-0.012721
0.0116956
-0.0216689
0.0185294
-0.032305
0.0246226
-0.0441717
0.0297385
-0.0567044
0.0336146
-0.069557
0.0362384
-0.0825419
0.0378128
-0.0954771
0.0385584
-0.108272
0.0386542
-0.12083
0.0382186
-0.133031
0.0372559
-0.144722
0.0357916
-0.155758
0.0338531
-0.166005
0.0313597
-0.175276
0.0282891
-0.18337
0.0246823
-0.190115
0.0205154
-0.19534
0.0157586
-0.1989
0.010443
-0.200637
0.0045628
-0.200406
-0.0018764
-0.198184
-0.00885737
-0.193949
-0.0164086
-0.1876
-0.0244303
-0.179222
-0.0328538
-0.169237
-0.0416785
-0.158428
-0.0508073
-0.147082
-0.059663
-0.0678234
-0.00782447
0.011126
-0.0173214
0.0209588
-0.0282099
0.0291137
-0.0401821
0.0362563
-0.0527795
0.0420495
-0.0655607
0.0462884
-0.0783502
0.0490939
-0.0910831
0.0507305
-0.103706
0.0514665
-0.116195
0.0514838
-0.12846
0.0508718
-0.140424
0.0496362
-0.151974
0.0477628
-0.16294
0.0452523
-0.173196
0.0420648
-0.18259
0.0381356
-0.190914
0.0334814
-0.198006
0.0281135
-0.203691
0.0219665
-0.207824
0.0150898
-0.210296
0.00753275
-0.210981
-0.000649782
-0.209892
-0.00937533
-0.207085
-0.0186531
-0.20258
-0.0283315
-0.196556
-0.0382292
-0.189451
-0.0481283
-0.181835
-0.0577635
-0.173939
-0.0668614
-0.0749914
-0.00946153
0.020582
-0.0207875
0.0320669
-0.0331153
0.0411574
-0.0459168
0.0487602
-0.058712
0.0546255
-0.0712831
0.0587746
-0.0836277
0.0614915
-0.0957892
0.0630745
-0.107815
0.0637692
-0.119739
0.0637297
-0.131501
0.0629936
-0.143032
0.0615552
-0.154236
0.0593717
-0.164966
0.0563908
-0.17507
0.0525964
-0.18442
0.0479344
-0.192831
0.0423543
-0.200113
0.0358783
-0.206117
0.0284735
-0.210701
0.0201841
-0.213771
0.0111139
-0.215241
0.00135781
-0.215136
-0.0089161
-0.213546
-0.0196684
-0.210562
-0.0307118
-0.206404
-0.0417526
-0.201456
-0.0524246
-0.196156
-0.0623974
-0.190872
-0.0714473
-0.0790644
-0.0107187
0.0313139
-0.0234553
0.0446092
-0.0367106
0.0541605
-0.0497662
0.0615807
-0.0622448
0.0669781
-0.0741924
0.0706967
-0.0857598
0.0731266
-0.0970986
0.074588
-0.108332
0.0752535
-0.119512
0.0752078
-0.130617
0.0744318
-0.141578
0.0728804
-0.152292
0.0704827
-0.162659
0.0671645
-0.172526
0.0628788
-0.181732
0.0575752
-0.190124
0.0511927
-0.197509
0.0437271
-0.203749
0.0351967
-0.208714
0.0256493
-0.212299
0.0152123
-0.214454
0.0040457
-0.215199
-0.00761653
-0.214652
-0.0196415
-0.212936
-0.0318301
-0.210274
-0.0437882
-0.206998
-0.0550537
-0.203484
-0.0652432
-0.200161
-0.0740745
-0.0811038
-0.0117044
0.0430841
-0.0254577
0.0581578
-0.0390294
0.0675111
-0.0517097
0.0740859
-0.063385
0.0785875
-0.074326
0.0816638
-0.084843
0.0837433
-0.0951764
0.085094
-0.105477
0.0857849
-0.115797
0.0858047
-0.126132
0.0850751
-0.136424
0.0835094
-0.146575
0.0810024
-0.156484
0.0774606
-0.166016
0.0728054
-0.174997
0.0669666
-0.183281
0.0599031
-0.190706
0.0515978
-0.197129
0.0420846
-0.202426
0.031432
-0.206493
0.0197827
-0.20928
0.00735657
-0.210798
-0.00555211
-0.211166
-0.0187059
-0.210526
-0.0318778
-0.209093
-0.0446018
-0.207155
-0.0563489
-0.205058
-0.0666739
-0.203221
-0.075218
-0.0816963
-0.0124367
0.055612
-0.0266973
0.0721686
-0.0398869
0.0804933
-0.0515524
0.08562
-0.0619608
0.0889614
-0.0715815
0.0913377
-0.080858
0.0931367
-0.0900715
0.0944684
-0.0993416
0.0952693
-0.108719
0.095444
-0.118214
0.094855
-0.127773
0.0933763
-0.137304
0.0908674
-0.146697
0.0872068
-0.15582
0.0822987
-0.164528
0.0760623
-0.172673
0.0684555
-0.180112
0.0594653
-0.186704
0.0491259
-0.192323
0.0375219
-0.19686
0.0248126
-0.200244
0.0112544
-0.202461
-0.00279819
-0.203633
-0.0169723
-0.203922
-0.0310026
-0.203522
-0.0443892
-0.202683
-0.0565495
-0.201726
-0.0669674
-0.20104
-0.0752134
-0.0811945
-0.012865
0.0685357
-0.0269215
0.0859445
-0.0389624
0.0923367
-0.049003
0.095564
-0.0577502
0.0977046
-0.0658409
0.0995037
-0.0737535
0.101175
-0.0817578
0.102618
-0.0899475
0.103648
-0.0983553
0.104091
-0.10699
0.103749
-0.11579
0.102456
-0.124661
0.100043
-0.133497
0.0963693
-0.142178
0.0913263
-0.150578
0.0848296
-0.158562
0.0768287
-0.165996
0.0673106
-0.172745
0.05631
-0.178685
0.0439182
-0.183693
0.0303012
-0.187664
0.0157292
-0.190529
0.000595876
-0.192418
-0.01453
-0.193535
-0.0293058
-0.194034
-0.0432835
-0.194129
-0.0558213
-0.194111
-0.066326
-0.194342
-0.0742941
-0.0798191
-0.0129012
0.0814344
-0.0258337
0.0986165
-0.0358595
0.1022
-0.0437071
0.103358
-0.0504979
0.104526
-0.0569489
0.106049
-0.0634529
0.107813
-0.0702188
0.109534
-0.0773492
0.110943
-0.0848325
0.111772
-0.0926271
0.111773
-0.100663
0.110746
-0.108851
0.108509
-0.117098
0.104919
-0.125302
0.0998554
-0.133353
0.0932291
-0.141136
0.0849837
-0.148532
0.0751017
-0.155416
0.0636127
-0.161656
0.0506028
-0.167115
0.0362278
-0.171644
0.020752
-0.175151
0.00462243
-0.177743
-0.0113922
-0.179639
-0.0268369
-0.180966
-0.041357
-0.181897
-0.0542616
-0.182686
-0.0648815
-0.18368
-0.0726164
-0.0777121
-0.0123504
0.0937338
-0.0229783
0.109044
-0.030009
0.109135
-0.0352105
0.108559
-0.0399028
0.109284
-0.0447162
0.11097
-0.0499146
0.11315
-0.0555788
0.115365
-0.0617531
0.117283
-0.0683735
0.118564
-0.0753518
0.118957
-0.0826212
0.118246
-0.0901079
0.116253
-0.0977342
0.112827
-0.105416
0.107843
-0.113065
0.101208
-0.120586
0.0928594
-0.127878
0.0827734
-0.134826
0.0709663
-0.1413
0.0575076
-0.147145
0.0425299
-0.152202
0.0262921
-0.156398
0.00932802
-0.159735
-0.00751789
-0.162396
-0.0236105
-0.164532
-0.0386272
-0.166274
-0.0518968
-0.167814
-0.0626915
-0.16948
-0.0702694
-0.0749501
-0.0107051
0.104388
-0.0173903
0.115602
-0.0205357
0.112264
-0.0229851
0.111061
-0.0257753
0.112165
-0.0292106
0.11452
-0.0333544
0.117426
-0.0381339
0.120301
-0.043464
0.122775
-0.0492607
0.124527
-0.0554377
0.125323
-0.0619445
0.124967
-0.0687163
0.123263
-0.0756916
0.120065
-0.0828053
0.115245
-0.0899864
0.108702
-0.0971651
0.100377
-0.104262
0.0902354
-0.111179
0.0782751
-0.117797
0.0645437
-0.123976
0.0491545
-0.129571
0.0323591
-0.134443
0.014701
-0.138477
-0.00295505
-0.141873
-0.0196563
-0.144839
-0.0350748
-0.147437
-0.0486821
-0.149755
-0.0597271
-0.152078
-0.0672707
-0.0715506
-0.00644317
0.110838
-0.00674449
0.115855
-0.00662808
0.112192
-0.0069487
0.111465
-0.00842295
0.113738
-0.0109163
0.117124
-0.0142491
0.120879
-0.0182602
0.124448
-0.0228143
0.127476
-0.0278259
0.129696
-0.0332204
0.130894
-0.0389754
0.13092
-0.0450215
0.129532
-0.0513171
0.126608
-0.0578151
0.122016
-0.0644591
0.115645
-0.0712083
0.107451
-0.0780106
0.0973891
-0.0847917
0.0854347
-0.0914472
0.0716053
-0.097866
0.0560072
-0.10392
0.0388751
-0.109425
0.0206973
-0.114058
0.002199
-0.118088
-0.0150769
-0.121905
-0.0306778
-0.125453
-0.0445234
-0.128673
-0.0558666
-0.131721
-0.0635503
-0.0674789
0.00465967
0.106292
0.00847031
0.112064
0.0113805
0.109355
0.0121296
0.110802
0.0113951
0.114563
0.00957559
0.119042
0.0069547
0.123608
0.00369054
0.127832
-0.000123485
0.131423
-0.00442013
0.134139
-0.0091222
0.135761
-0.0141166
0.1361
-0.0194244
0.135048
-0.0250101
0.132427
-0.0308446
0.128109
-0.0368699
0.121954
-0.0430826
0.113975
-0.0494632
0.104108
-0.0559798
0.0923174
-0.0625418
0.0785616
-0.0690714
0.0629598
-0.0753961
0.0456519
-0.0812618
0.0270447
-0.0863643
0.00781326
-0.0911014
-0.00979759
-0.0957476
-0.0254586
-0.100316
-0.0393515
-0.10462
-0.0509275
-0.108572
-0.0589308
-0.0626496
0.0240009
0.0825797
0.0298897
0.106172
0.0323333
0.106964
0.0330415
0.110161
0.0326781
0.115003
0.0314274
0.120377
0.0294662
0.125664
0.026912
0.130494
0.0238501
0.134606
0.0203455
0.13778
0.0164567
0.139803
0.0122227
0.140509
0.00769535
0.139772
0.00288725
0.137455
-0.00221723
0.133459
-0.00759265
0.127602
-0.0131879
0.119869
-0.0190031
0.11025
-0.0250123
0.0986812
-0.0312227
0.0851555
-0.0375594
0.0697092
-0.0439716
0.0525065
-0.0502508
0.0337966
-0.0560613
0.0141272
-0.0612247
-0.00409973
-0.0665423
-0.0195751
-0.072045
-0.0332512
-0.0775503
-0.044793
-0.0826802
-0.0531388
-0.0568962
0.206672
0.0104404
0.205569
0.0148247
0.20437
0.0187717
0.203057
0.0225919
0.201624
0.0263598
0.200069
0.0301274
0.198383
0.0339399
0.196559
0.0378349
0.194585
0.0418565
0.19243
0.046053
0.190083
0.0504494
0.187549
0.0550843
0.18481
0.0600196
0.181836
0.0652986
0.178617
0.0709847
0.175119
0.0771694
0.171309
0.0839354
0.167194
0.0913892
0.162768
0.0996636
0.15801
0.108903
0.152923
0.119327
0.147544
0.13115
0.142018
0.144587
0.13658
0.159844
0.131724
0.177013
0.128311
0.195862
0.12779
0.215483
0.132719
0.234025
0.14616
0.247788
0.25308
0.260405
0.211696
0.0109436
0.210612
0.0154991
0.209441
0.0196038
0.208158
0.0235809
0.20677
0.0275023
0.205275
0.031424
0.203662
0.0353954
0.201928
0.0394533
0.20005
0.0436477
0.198008
0.0480182
0.1958
0.0525894
0.193428
0.0574121
0.190873
0.0625434
0.188107
0.068028
0.185139
0.0739235
0.181945
0.0803266
0.178508
0.0873225
0.174871
0.0949793
0.171061
0.10343
0.167065
0.112828
0.162971
0.123309
0.158958
0.135018
0.155313
0.148052
0.152513
0.162414
0.151379
0.177863
0.153207
0.193696
0.159828
0.208482
0.173513
0.219965
0.19472
0.226238
0.23254
0.214988
0.216847
0.0114244
0.215784
0.0161387
0.214645
0.0203916
0.213404
0.0245123
0.212076
0.0285712
0.210655
0.0326327
0.20913
0.0367482
0.207502
0.0409558
0.205741
0.0453036
0.203835
0.0498264
0.201788
0.054556
0.199602
0.0595401
0.197272
0.0648292
0.194778
0.0704733
0.192116
0.0765328
0.189289
0.0830916
0.186331
0.0902083
0.183281
0.0979647
0.180177
0.106466
0.177103
0.115806
0.174215
0.126062
0.171771
0.137285
0.170177
0.149431
0.170033
0.162296
0.172162
0.175427
0.177495
0.188015
0.186624
0.198984
0.199177
0.207057
0.21316
0.211939
0.214398
0.231071
0.22212
0.0118812
0.221076
0.0167415
0.219973
0.0211274
0.218794
0.0253738
0.217548
0.0295549
0.216212
0.0337418
0.214789
0.0379853
0.21328
0.0423241
0.211654
0.046802
0.209905
0.0514568
0.208043
0.0563183
0.20608
0.0614258
0.204015
0.0668348
0.201831
0.0725908
0.19953
0.0787567
0.197145
0.0853895
0.194737
0.0925269
0.19234
0.100268
0.190042
0.108653
0.188003
0.117717
0.186411
0.127492
0.185567
0.137919
0.185904
0.148849
0.187932
0.159986
0.192166
0.170874
0.198964
0.180875
0.208276
0.189324
0.219693
0.195311
0.232984
0.19836
0.197648
0.249525
0.22752
0.0123102
0.226497
0.0172978
0.225437
0.0217973
0.224338
0.0261518
0.223191
0.0304424
0.221953
0.0347421
0.220637
0.0390959
0.21926
0.0435404
0.217788
0.0481254
0.216222
0.0528872
0.214578
0.0578424
0.212878
0.0630343
0.211112
0.0685259
0.209269
0.0743423
0.207381
0.0805427
0.205499
0.0871659
0.203685
0.0942374
0.202008
0.101825
0.200601
0.109917
0.199638
0.118526
0.199313
0.127621
0.199921
0.137073
0.201806
0.146699
0.205295
0.156203
0.210652
0.1652
0.217985
0.173213
0.227245
0.179739
0.238144
0.184109
0.250225
0.186016
0.184634
0.263045
0.233053
0.0127046
0.232059
0.0177982
0.231054
0.0223912
0.230044
0.0268356
0.229003
0.0312241
0.227869
0.0356229
0.226676
0.0400619
0.225448
0.0445845
0.224152
0.0492529
0.222793
0.0540909
0.221399
0.059101
0.21999
0.064344
0.218549
0.0698699
0.217085
0.0756864
0.215655
0.0818516
0.214318
0.088378
0.21315
0.0952799
0.212247
0.102584
0.211746
0.110259
0.2118
0.118295
0.212596
0.126605
0.21437
0.135047
0.217361
0.143433
0.221773
0.151497
0.227731
0.158934
0.235257
0.165374
0.24428
0.170412
0.254415
0.173695
0.26506
0.175128
0.173656
0.275853
0.238724
0.0130583
0.237766
0.0182358
0.236836
0.0229012
0.235921
0.02742
0.234973
0.0318922
0.233956
0.0363648
0.232913
0.0408604
0.231853
0.0454409
0.23075
0.0501665
0.229626
0.0550395
0.228507
0.0600714
0.227405
0.0653296
0.226317
0.0708314
0.225273
0.0765881
0.224341
0.0826415
0.223588
0.088984
0.223091
0.0956251
0.222949
0.10256
0.22328
0.10975
0.224225
0.117149
0.225943
0.124653
0.228612
0.13212
0.232396
0.139372
0.237401
0.146201
0.243679
0.152358
0.25123
0.157527
0.259904
0.161454
0.26932
0.164018
0.279054
0.165167
0.1637
0.288834
0.244541
0.0133654
0.243629
0.0186018
0.242783
0.0233225
0.241958
0.0279031
0.241101
0.0324326
0.240223
0.0369456
0.239357
0.0414778
0.238478
0.0460978
0.237589
0.050843
0.236724
0.0557116
0.235898
0.0607344
0.235128
0.0659558
0.234427
0.0713781
0.233837
0.0770168
0.233425
0.0828896
0.233253
0.0889882
0.233394
0.0953077
0.233945
0.101822
0.23501
0.108484
0.236716
0.115224
0.239189
0.121939
0.242555
0.128493
0.246905
0.134747
0.252294
0.140527
0.258763
0.145601
0.266257
0.149752
0.274574
0.15287
0.283443
0.154904
0.29258
0.155815
0.154429
0.301681
0.250514
0.0136211
0.24966
0.0188932
0.248886
0.0236515
0.248147
0.0282714
0.247405
0.0328254
0.246687
0.0373529
0.246005
0.0419037
0.245328
0.0465317
0.24468
0.051257
0.244091
0.0560917
0.243576
0.0610655
0.24316
0.0661988
0.242865
0.0714962
0.242734
0.0769671
0.242826
0.0826138
0.2432
0.0884242
0.243934
0.0943774
0.245112
0.100437
0.246827
0.106549
0.249182
0.112639
0.252274
0.118603
0.256173
0.124334
0.26093
0.129717
0.2666
0.134578
0.273179
0.138744
0.280553
0.142111
0.288555
0.144616
0.297
0.146228
0.305674
0.146935
0.145647
0.314289
0.25664
0.0138201
0.255851
0.0191055
0.255151
0.0238769
0.25451
0.0285055
0.253907
0.033058
0.253356
0.0375799
0.252861
0.0421211
0.252408
0.0467204
0.252018
0.0513965
0.251715
0.056166
0.251523
0.0610485
0.251466
0.0660561
0.251572
0.0711911
0.251886
0.0764533
0.25246
0.081836
0.253354
0.0873212
0.254637
0.0928793
0.256382
0.0984675
0.258664
0.104031
0.261569
0.109496
0.265162
0.11477
0.269471
0.119766
0.274549
0.124365
0.280423
0.128431
0.28703
0.131871
0.294265
0.13462
0.302005
0.136635
0.310107
0.137905
0.318413
0.138432
0.137225
0.326672
0.262917
0.013955
0.262198
0.0192277
0.261585
0.0239855
0.261059
0.0285959
0.260604
0.0331236
0.260224
0.0376154
0.259924
0.0421155
0.259703
0.0466559
0.259577
0.0512547
0.259569
0.0559262
0.259702
0.0606829
0.260003
0.0655309
0.260506
0.0704684
0.26125
0.0754886
0.262286
0.080578
0.263668
0.0857138
0.265453
0.0908616
0.267706
0.0959749
0.270477
0.101008
0.273834
0.105893
0.277834
0.110535
0.282488
0.114855
0.287818
0.118762
0.293812
0.122171
0.300402
0.125023
0.307508
0.127268
0.315029
0.128884
0.322853
0.129869
0.330861
0.130233
0.129088
0.338838
0.269348
0.0140192
0.268705
0.0192517
0.26819
0.0239697
0.267786
0.0285361
0.267484
0.0330143
0.267283
0.0374491
0.267187
0.0418793
0.267203
0.0463328
0.267345
0.0508257
0.267633
0.0553688
0.268092
0.0599691
0.26875
0.0646278
0.269639
0.0693391
0.270797
0.0740917
0.272268
0.0788673
0.274099
0.0836402
0.276341
0.0883742
0.279038
0.0930276
0.282227
0.097559
0.285972
0.101894
0.290313
0.105949
0.295245
0.109668
0.300753
0.112989
0.306814
0.115852
0.313375
0.118213
0.320365
0.120041
0.327702
0.121324
0.335295
0.12207
0.343053
0.122288
0.121191
0.350793
0.275938
0.0140074
0.275376
0.0191712
0.274966
0.0238232
0.274693
0.0283203
0.274548
0.0327231
0.274532
0.037074
0.274647
0.0414072
0.274904
0.0457469
0.275314
0.0501068
0.275899
0.0544942
0.276681
0.0589114
0.277687
0.063356
0.278947
0.0678186
0.280497
0.0722854
0.282374
0.0767343
0.284616
0.0811419
0.287257
0.085475
0.29034
0.0896862
0.293906
0.0937309
0.297994
0.0975469
0.302612
0.101077
0.307745
0.104278
0.313379
0.107099
0.319482
0.109498
0.326007
0.111446
0.332894
0.112924
0.340072
0.11393
0.34747
0.114473
0.355013
0.114563
0.113504
0.362546
0.282689
0.0139148
0.282214
0.0189807
0.281915
0.0235405
0.281778
0.0279427
0.281797
0.0322448
0.281969
0.0364857
0.2823
0.0406958
0.282799
0.0448964
0.283477
0.0490986
0.284354
0.0533063
0.285452
0.0575174
0.286794
0.0617278
0.28841
0.0659247
0.290326
0.0700958
0.292569
0.0742203
0.295177
0.0782645
0.298184
0.0821991
0.301622
0.0859807
0.30552
0.0895667
0.309886
0.0929163
0.314719
0.0959838
0.320008
0.0987305
0.325733
0.10112
0.331861
0.103124
0.338347
0.104723
0.345139
0.105908
0.352178
0.10668
0.359405
0.107051
0.36676
0.10703
0.106004
0.374106
0.289606
0.0137373
0.289222
0.0186757
0.289038
0.023117
0.289043
0.027399
0.289229
0.0315753
0.289593
0.0356814
0.290141
0.0397442
0.290881
0.0437817
0.291824
0.0478042
0.292986
0.0518122
0.294391
0.0557967
0.296055
0.0597582
0.297998
0.063686
0.300248
0.0675554
0.302835
0.0713486
0.305785
0.0750326
0.309128
0.078577
0.312879
0.081954
0.317047
0.0851259
0.321638
0.0880568
0.326647
0.0907117
0.332059
0.0930605
0.33785
0.0950776
0.343988
0.0967436
0.350432
0.0980468
0.357137
0.0989839
0.364052
0.0995592
0.371127
0.0997845
0.378311
0.0996702
0.0986756
0.385488
0.296691
0.0134718
0.296402
0.0182527
0.296338
0.0225487
0.29649
0.0266849
0.296846
0.0307118
0.297402
0.034661
0.298165
0.038554
0.299144
0.0424048
0.300348
0.0462278
0.301784
0.050023
0.303475
0.0537695
0.305441
0.0574685
0.307697
0.0611166
0.310267
0.0646805
0.313176
0.0681398
0.31644
0.0714745
0.320072
0.0746564
0.324084
0.0776583
0.328481
0.0804507
0.333261
0.0830044
0.338414
0.0852929
0.343922
0.0872934
0.349761
0.0889882
0.355899
0.0903646
0.3623
0.0914167
0.368922
0.0921446
0.375723
0.0925547
0.38266
0.0926589
0.389689
0.0924672
0.0915055
0.396707
0.303949
0.013116
0.303756
0.0177097
0.303816
0.0218328
0.304119
0.0257957
0.304649
0.0296508
0.305396
0.0334267
0.306367
0.0371311
0.307575
0.0407765
0.309028
0.044381
0.310733
0.0479438
0.312703
0.0514436
0.314956
0.0548739
0.317511
0.0582305
0.320381
0.0614899
0.323578
0.0646307
0.327114
0.0676327
0.331
0.0704729
0.335238
0.0731281
0.33983
0.0755745
0.344768
0.0777896
0.350039
0.0797532
0.355623
0.0814491
0.361495
0.0828649
0.367626
0.0839935
0.373983
0.0848325
0.380527
0.0853845
0.387223
0.0856571
0.394032
0.0856619
0.400917
0.0854085
0.0844828
0.407788
0.311385
0.0126674
0.31129
0.0170452
0.311473
0.0209691
0.311924
0.0247349
0.312625
0.0283955
0.313565
0.0319754
0.314747
0.0354741
0.316179
0.0389018
0.31787
0.0422731
0.319834
0.0455857
0.322075
0.0488272
0.324601
0.0519875
0.327428
0.0550565
0.330566
0.0580167
0.334021
0.0608492
0.337802
0.0635354
0.341911
0.0660561
0.346347
0.0683921
0.351106
0.0705246
0.356177
0.0724364
0.361545
0.0741128
0.367189
0.0755424
0.373085
0.0767173
0.379204
0.077634
0.385515
0.0782928
0.391986
0.078698
0.398584
0.0788575
0.405275
0.0787826
0.412028
0.0784825
0.0775968
0.41876
0.319002
0.0121231
0.319009
0.0162565
0.319316
0.0199583
0.319908
0.0235075
0.320774
0.0269511
0.321906
0.030309
0.323299
0.0335836
0.324954
0.0367808
0.326881
0.0399087
0.329086
0.0429656
0.331576
0.0459425
0.334356
0.0488294
0.337434
0.0516147
0.340817
0.0542837
0.344507
0.0568202
0.348505
0.0592082
0.352812
0.0614315
0.357421
0.0634746
0.362325
0.065323
0.36751
0.0669639
0.372958
0.0683868
0.378651
0.0695841
0.384562
0.0705514
0.390666
0.0712877
0.396934
0.071795
0.403337
0.0720788
0.409844
0.0721471
0.416427
0.0720105
0.423056
0.0716778
0.0708367
0.42966
0.326803
0.0114818
0.326914
0.0153431
0.327346
0.0188006
0.328081
0.0221122
0.32911
0.0253184
0.330425
0.0284361
0.332018
0.0314694
0.333889
0.034422
0.336041
0.0372974
0.338478
0.0400936
0.341203
0.0428034
0.344219
0.0454172
0.34753
0.0479241
0.351136
0.0503114
0.355038
0.0525655
0.359233
0.0546727
0.363716
0.0566201
0.368478
0.0583952
0.373508
0.059987
0.378791
0.0613864
0.384309
0.062586
0.390041
0.0635813
0.395963
0.0643702
0.402051
0.0649536
0.408279
0.0653349
0.414619
0.0655198
0.421044
0.0655164
0.427528
0.0653345
0.434045
0.0649824
0.0641908
0.440531
0.334792
0.0107435
0.335006
0.0143061
0.335562
0.0174966
0.336441
0.0205498
0.337631
0.0234999
0.339123
0.0263615
0.340909
0.0291392
0.342986
0.0318351
0.345353
0.0344502
0.348009
0.0369817
0.350955
0.0394233
0.354192
0.0417666
0.357717
0.0440016
0.36153
0.0461175
0.365625
0.048103
0.369998
0.0499469
0.374638
0.0516388
0.379537
0.053169
0.384679
0.0545295
0.390049
0.0557138
0.395628
0.0567171
0.401395
0.0575372
0.407328
0.0581737
0.413402
0.0586286
0.419594
0.0589061
0.425878
0.0590122
0.43223
0.0589546
0.438625
0.0587424
0.445042
0.0583832
0.0576461
0.451422
0.342973
0.00990798
0.34329
0.013146
0.343969